ITEM: TIMESTEP
0
ITEM: NUMBER OF ATOMS
176
ITEM: BOX BOUNDS pp pp pp
-3.0000000000000000e+02 3.0000000000000000e+02
-3.0000000000000000e+02 3.0000000000000000e+02
-3.0000000000000000e+02 3.0000000000000000e+02
ITEM: ATOMS id mol type q xu yu zu
1 1 2 0                    6                    0                    0
2 1 19 0                   12                    0                    0
3 1 17 0                   18                    0                    0
4 1 14 0                   24                    0                    0
5 1 17 0                   30                    0                    0
6 1 4 0                   36                    0                    0
7 1 18 0                   42                    0                    0
8 1 12 0                   48                    0                    0
9 1 12 0                   54                    0                    0
10 1 17 0                   60                    0                    0
11 1 3 0.75                   66                    0                    0
12 1 4 0                   72                    0                    0
13 1 18 0                   78                    0                    0
14 1 14 0                   84                    0                    0
15 1 15 0                   90                    0                    0
16 1 14 0                   96                    0                    0
17 1 2 0                  102                    0                    0
18 1 4 0                  108                    0                    0
19 1 6 0                  114                    0                    0
20 1 17 0                  120                    0                    0
21 1 17 0                  126                    0                    0
22 1 17 0                  132                    0                    0
23 1 15 0                  138                    0                    0
24 1 17 0                  144                    0                    0
25 1 4 0                  150                    0                    0
26 1 4 0                  156                    0                    0
27 1 17 0                  162                    0                    0
28 1 12 0                  168                    0                    0
29 1 17 0                  174                    0                    0
30 1 15 0                  180                    0                    0
31 1 15 0                  186                    0                    0
32 1 4 0                  192                    0                    0
33 1 2 0                  198                    0                    0
34 1 6 0                  204                    0                    0
35 1 2 0                  210                    0                    0
36 1 6 0                  216                    0                    0
37 1 14 0                  222                    0                    0
38 1 2 0                  228                    0                    0
39 1 4 0                  234                    0                    0
40 1 2 0                  240                    0                    0
41 1 12 0                  246                    0                    0
42 1 15 0                  252                    0                    0
43 1 4 0                  258                    0                    0
44 1 14 0                  264                    0                    0
45 1 2 0                  270                    0                    0
46 1 14 0                  276                    0                    0
47 1 17 0                  282                    0                    0
48 1 17 0                  288                    0                    0
49 1 15 0                  294                    0                    0
50 1 6 0                  300                    0                    0
51 1 18 0                  300                    6                    0
52 1 17 0                  300                   12                    0
53 1 17 0                  300                   18                    0
54 1 4 0                  300                   24                    0
55 1 17 0                  300                   30                    0
56 1 17 0                  300                   36                    0
57 1 6 0                  300                   42                    0
58 1 17 0                  300                   48                    0
59 1 15 0                  300                   54                    0
60 1 15 0                  300                   60                    0
61 1 20 0                  300                   66                    0
62 1 4 0                  300                   72                    0
63 1 18 0                  300                   78                    0
64 1 6 0                  300                   84                    0
65 1 14 0                  300                   90                    0
66 1 2 0                  300                   96                    0
67 1 15 0                  300                  102                    0
68 1 17 0                  300                  108                    0
69 1 17 0                  300                  114                    0
70 1 4 0                  300                  120                    0
71 1 2 0                  300                  126                    0
72 1 17 0                  300                  132                    0
73 1 4 0                  300                  138                    0
74 1 6 0                  300                  144                    0
75 1 14 0                  300                  150                    0
76 1 2 0                  300                  156                    0
77 1 17 0                  300                  162                    0
78 1 15 0                  300                  168                    0
79 1 17 0                  300                  174                    0
80 1 18 0                  300                  180                    0
81 1 4 0                  300                  186                    0
82 1 15 0                  300                  192                    0
83 1 17 0                  300                  198                    0
84 1 10 0                  300                  204                    0
85 1 14 0                  300                  210                    0
86 1 2 0                  300                  216                    0
87 1 15 0                  300                  222                    0
88 1 17 0                  300                  228                    0
89 1 17 0                  300                  234                    0
90 1 15 0                  300                  240                    0
91 1 4 0                  300                  246                    0
92 1 4 0                  300                  252                    0
93 1 17 0                  300                  258                    0
94 1 4 0                  300                  264                    0
95 1 14 0                  300                  270                    0
96 1 2 0                  300                  276                    0
97 1 15 0                  300                  282                    0
98 1 17 0                  300                  288                    0
99 1 15 0                  300                  294                    0
100 1 6 0                  300                  300                    0
101 1 2 0                  300                  300                    6
102 1 4 0                  300                  300                   12
103 1 15 0                  300                  300                   18
104 1 11 0                  300                  300                   24
105 1 14 0                  300                  300                   30
106 1 2 0                  300                  300                   36
107 1 15 0                  300                  300                   42
108 1 15 0                  300                  300                   48
109 1 15 0                  300                  300                   54
110 1 6 0                  300                  300                   60
111 1 12 0                  300                  300                   66
112 1 12 0                  300                  300                   72
113 1 4 0                  300                  300                   78
114 1 3 0.75                  300                  300                   84
115 1 15 0                  300                  300                   90
116 1 17 0                  300                  300                   96
117 1 2 0                  300                  300                  102
118 1 4 0                  300                  300                  108
119 1 6 0                  300                  300                  114
120 1 2 0                  300                  300                  120
121 1 2 0                  300                  300                  126
122 1 17 0                  300                  300                  132
123 1 4 0                  300                  300                  138
124 1 14 0                  300                  300                  144
125 1 2 0                  300                  300                  150
126 1 15 0                  300                  300                  156
127 1 15 0                  300                  300                  162
128 1 15 0                  300                  300                  168
129 1 11 0                  300                  300                  174
130 1 14 0                  300                  300                  180
131 1 17 0                  300                  300                  186
132 1 17 0                  300                  300                  192
133 1 15 0                  300                  300                  198
134 1 4 0                  300                  300                  204
135 1 17 0                  300                  300                  210
136 1 15 0                  300                  300                  216
137 1 17 0                  300                  300                  222
138 1 4 0                  300                  300                  228
139 1 4 0                  300                  300                  234
140 1 3 0.75                  300                  300                  240
141 1 18 0                  300                  300                  246
142 1 6 0                  300                  300                  252
143 1 14 0                  300                  300                  258
144 1 2 0                  300                  300                  264
145 1 2 0                  300                  300                  270
146 1 11 0                  300                  300                  276
147 1 17 0                  300                  300                  282
148 1 14 0                  300                  300                  288
149 1 2 0                  300                  300                  294
150 1 2 0                  300                  300                  300
151 1 2 0                  300                  300                  306
152 1 17 0                  300                  300                  312
153 1 17 0                  300                  300                  318
154 1 4 0                  300                  300                  324
155 1 4 0                  300                  300                  330
156 1 18 0                  300                  300                  336
157 1 15 0                  300                  300                  342
158 1 15 0                  300                  300                  348
159 1 4 0                  300                  300                  354
160 1 2 0                  300                  300                  360
161 1 17 0                  300                  300                  366
162 1 6 0                  300                  300                  372
163 1 17 0                  300                  300                  378
164 1 4 0                  300                  300                  384
165 1 15 0                  300                  300                  390
166 1 17 0                  300                  300                  396
167 1 17 0                  300                  300                  402
168 1 11 0                  300                  300                  408
169 1 14 0                  300                  300                  414
170 1 2 0                  300                  300                  420
171 1 6 0                  300                  300                  426
172 1 4 0                  300                  300                  432
173 1 6 0                  300                  300                  438
174 1 17 0                  300                  300                  444
175 1 6 0                  300                  300                  450
176 1 17 0                  300                  300                  456
ITEM: TIMESTEP
100000
ITEM: NUMBER OF ATOMS
176
ITEM: BOX BOUNDS pp pp pp
-3.0000000000000000e+02 3.0000000000000000e+02
-3.0000000000000000e+02 3.0000000000000000e+02
-3.0000000000000000e+02 3.0000000000000000e+02
ITEM: ATOMS id mol type q xu yu zu
1 1 2 0     234.052419876526     81.4046643735285     42.7362768999092
2 1 19 0     234.196865550294     80.4475314267495     38.8196547729369
3 1 17 0     231.656986195454     78.9275396641096     35.8632337708052
4 1 14 0     230.045702314597     79.5760136679883     32.4749691518746
5 1 17 0     226.572319980197     81.2011516217436      30.879310049146
6 1 4 0     225.158763458537      78.966577479507     28.0936951785509
7 1 18 0     226.502234034739     80.9204307655477     24.7294708941003
8 1 12 0     224.635293606941     84.2480237048337     23.9298795172415
9 1 12 0      224.99589758032     87.8186725647061     25.2612936007163
10 1 17 0     225.735528768145     91.1979148190477     26.4155372224728
11 1 3 0.75     222.966202454516     93.6841342895972     25.1286195552539
12 1 4 0     223.225427351809     92.1764944039303      21.461723741282
13 1 18 0     223.073556169603     94.4304620925003     18.6744850952835
14 1 14 0     222.870986107004     98.0908630839051     19.0136671765737
15 1 15 0     222.539660574005     100.995949173758     21.5300214489878
16 1 14 0     224.769786769469     102.606759417571      24.024253491854
17 1 2 0     225.356201841741     104.036687892481     27.4855560891999
18 1 4 0     225.726049239072     103.549417156543     31.0684412427074
19 1 6 0     226.783792458259     101.028244966617     33.6559608987613
20 1 17 0     227.454611451547     103.453309629056     36.1962736938429
21 1 17 0     226.305397455421     106.250777726058      39.148287084316
22 1 17 0     223.365333699321     105.757044235637     41.5307902797665
23 1 15 0     219.304566508582     105.566605467353     41.3813586784202
24 1 17 0      218.29151211058     102.775923739855     43.7130216600369
25 1 4 0     215.582476146442     100.433627208418     44.8380083241438
26 1 4 0      216.56195272355     97.9882853374007     47.9143057559005
27 1 17 0     220.087343745506     98.7814808246327     48.9321794563251
28 1 12 0     223.188713551422     100.508322582573      49.928164443969
29 1 17 0     226.386863197788     103.085376158866     48.3348933866571
30 1 15 0     230.380731930289     104.178186846082     48.4031468383295
31 1 15 0      229.89631161446     103.462834504439     52.1142009962831
32 1 4 0     230.611657131169     106.005523906821     55.2641113219294
33 1 2 0     229.592227882643     105.642038078926     58.9488268637985
34 1 6 0     229.287554794184     109.126318134564      60.198512235081
35 1 2 0     230.626594495859     112.316329474025      61.400658666767
36 1 6 0     231.948765050311     112.588430540626      65.062388461616
37 1 14 0     233.965963803826     110.018057542409     66.9748828491513
38 1 2 0     234.221082647183     106.107276192525     67.2372805264514
39 1 4 0     235.013133111768     102.242301253208     67.6141845849054
40 1 2 0     235.046887192774      99.310971032988     70.2852917372514
41 1 12 0      232.26897609987     96.7286118962027     69.4071043003218
42 1 15 0     230.114744305948      99.352679459607     71.1471929643142
43 1 4 0     228.477878520491     101.497780976184     74.0037225365412
44 1 14 0     226.065687495391     104.313825035847     75.3724083447452
45 1 2 0     223.549072998278     102.074003351095     77.2129383806817
46 1 14 0     219.753059418555      101.73594721049     77.6988613129982
47 1 17 0     217.567486178122     104.783974455219     78.1816113767404
48 1 17 0     216.120387316128     107.911400374544     76.3301290727608
49 1 15 0     215.438024285623     111.100347436052     78.7431922483176
50 1 6 0     219.213631611906     110.948616505754     79.9396196663302
51 1 18 0     220.290878720421     113.541411242847     82.3865402784515
52 1 17 0     223.248520271688     115.659720604981     80.8393840746212
53 1 17 0     223.516067009476     119.333410905412     80.5386835295504
54 1 4 0     222.146268255838     121.137896008742     83.3557047304521
55 1 17 0     221.783993797636     122.297424505283     87.1003126611986
56 1 17 0     220.557974431831     118.676035249262     88.5112016310055
57 1 6 0     222.124375673766     118.825789428913     92.0048595101269
58 1 17 0     221.151647211979     116.092948744796     94.2994747334124
59 1 15 0     220.277923473891     113.444998794125      91.637049028793
60 1 15 0     223.146590126027     112.395385814802     89.1683646149281
61 1 20 0     226.536825710943     113.796754554077     88.1398815457806
62 1 4 0     228.913936143625     111.683434491156     90.4476476771032
63 1 18 0     232.339682879364     112.969014348813     91.4391506684316
64 1 6 0     233.685064274257     109.182518922106     91.5146961783298
65 1 14 0     236.639319278161     109.171356937458     94.1965001571729
66 1 2 0     239.026581345265     110.918658611428     92.2381942841606
67 1 15 0     241.715383025178     113.973399651421      91.756708526483
68 1 17 0     242.533105325214      116.70876462554     94.5872919842925
69 1 17 0     242.508920268127     119.585211972722     91.9935868635486
70 1 4 0     245.861551577916     119.398988262468     91.4906193884278
71 1 2 0     248.203461273373      120.61655637724     88.9438252882028
72 1 17 0     251.547160512899     120.049838106653     87.6646912988809
73 1 4 0     254.436315374151     121.076370681733     90.1857117231355
74 1 6 0     255.390286248444     124.105925741965     92.4933815111146
75 1 14 0     257.615288632909     127.039734503136     93.9306476649809
76 1 2 0     255.335839608359     128.723027388771     91.5767060566659
77 1 17 0     255.622714410166     131.360056152275     87.9729279520146
78 1 15 0     256.628500049541     131.305167578758     84.0356931572452
79 1 17 0     254.074650367142     130.607784715921     81.4198951962005
80 1 18 0     252.985273714069     134.061890781904     81.3455830050269
81 1 4 0      254.70500653921     136.409505159065     83.5989729575476
82 1 15 0     255.186820472456     137.092458235783     87.5525786417326
83 1 17 0     256.711874984728     138.728492964297     90.7217479887255
84 1 10 0     257.575905110135     140.143377308931     94.1954409826756
85 1 14 0     257.899994533371     143.921673470703     94.4985808910714
86 1 2 0     256.203251989071     145.943796604455     97.4496014818002
87 1 15 0     256.577367133982     148.951417628397     99.4448156785847
88 1 17 0     254.247428709495      152.23401131458      99.913762700063
89 1 17 0      251.04558161671       150.9181622646     101.444888247264
90 1 15 0     249.026490602674     153.859751065156     101.485255277811
91 1 4 0     251.100116255147     157.181436119833     101.374238696435
92 1 4 0     254.364853206518     159.323135056209     101.821779092286
93 1 17 0     256.582521138375     160.618962084789     104.625577936598
94 1 4 0     258.111110014046      163.74187924875     103.744489487602
95 1 14 0     258.266078731619     167.359003202083     102.739179277166
96 1 2 0     257.968347067895     168.970879920023     106.250197439299
97 1 15 0     259.645685759502     172.569173731885     107.114597425797
98 1 17 0     257.589923649733     176.120554899464       106.7551517109
99 1 15 0     257.881221734676     178.625231047027       103.8557153453
100 1 6 0     258.124572915628     182.315574804562     103.991741814265
101 1 2 0      256.76599250187     183.390452430817     107.133705083723
102 1 4 0     259.194257077879     185.776428220381     108.792142139169
103 1 15 0     258.457402594358     187.556991793136     112.210841712355
104 1 11 0     255.358720732876     187.955846861752     114.725874814739
105 1 14 0     255.218108616465     190.686437861632     117.419326537809
106 1 2 0      257.82097620496     191.023673625375     120.810659141649
107 1 15 0     257.763239320321     194.737834503892      121.43295172558
108 1 15 0     255.179399416362     192.961336246165     123.942563667693
109 1 15 0     252.491019063524     194.240933788759     122.182600353829
110 1 6 0     253.055925065342     197.719589843641     123.539976274008
111 1 12 0     254.460672781505      201.17251331167      124.74685494002
112 1 12 0     251.505842699979     203.082584318189     123.808750210245
113 1 4 0      252.55267963159     206.411058210988     124.889366033913
114 1 3 0.75     250.480797894908     208.815598734737     127.349903062421
115 1 15 0     247.294853136454      209.83958173325      125.83934693065
116 1 17 0     246.140736872525     213.066337359333       124.0351120436
117 1 2 0     245.349071261693     216.761957130944     123.171997434331
118 1 4 0     241.676721721155     217.454167331651     124.276962718266
119 1 6 0     240.703568773292      219.44759971196     121.492923112327
120 1 2 0     240.424029260723     223.097843943357     120.671831107443
121 1 2 0     236.688554996208     224.234835599255     120.381762082718
122 1 17 0     237.621623722513     226.586700930102      123.13954935568
123 1 4 0     239.674352356232     228.802437831491      125.82824138126
124 1 14 0     243.660561890085      229.93063907906      125.81202996711
125 1 2 0     245.504784420571     232.410277839715     123.781478022632
126 1 15 0     244.750123073582     235.813629708733     123.439585301321
127 1 15 0     244.495202105225      239.78487012447     123.455003873192
128 1 15 0     245.038580240058     241.479546467188     126.697953624611
129 1 11 0     246.987457172157     244.711280333769     126.651489633324
130 1 14 0     246.803629888916     247.183914690923     129.793172864473
131 1 17 0      248.49011919581     250.868333551302     129.284801513523
132 1 17 0     251.171542779653     252.108995438009     132.191326773582
133 1 15 0     251.260356144512     255.104205515699     134.619512777636
134 1 4 0     250.354415905241     256.697763083287     138.144591259392
135 1 17 0     249.795417410678     254.233819692683     141.138829305685
136 1 15 0     245.895626072122     254.938897670028     141.439719904961
137 1 17 0     246.321129223465     257.856618189192     143.999669446544
138 1 4 0     248.619885092331     259.733305937429     146.485679995052
139 1 4 0     252.263294632855     258.911614769508     147.611696508217
140 1 3 0.75     252.276917308227     260.920191622737     150.359750224298
141 1 18 0       252.9680636609     259.893424097109     154.371798318579
142 1 6 0     255.922202841298     262.045242734846     154.508441951359
143 1 14 0     258.111013836287     261.490525607463     157.837831031929
144 1 2 0     260.790996279785     263.458251475755     159.828750718333
145 1 2 0     261.063107005294     261.361253494333     162.943792705727
146 1 11 0     264.372158975169     263.603433915535     163.846911956752
147 1 17 0     267.927631986511     263.640810139101     165.014970512435
148 1 14 0     270.760449803811     265.831967098328     166.266276348858
149 1 2 0     273.055566124242     262.797152995157     166.914057114276
150 1 2 0     273.032472856346     259.473286706715     164.915153938402
151 1 2 0     269.809027347792     258.910871944299     167.428840677898
152 1 17 0     271.319951893659     255.380654508138     167.460301829762
153 1 17 0     274.098746549912      254.75348064673     170.166541082794
154 1 4 0     273.623253453279     257.830011253184     172.533674759601
155 1 4 0     272.554635766594     256.019963762432      175.98924504827
156 1 18 0     273.855308974287     258.849768622454     177.780751899418
157 1 15 0     272.065293457633     262.255455254716     177.569983547299
158 1 15 0     271.950114633717     264.160676866092     180.733902757428
159 1 4 0     268.289503187768     264.373818467139     181.071573777327
160 1 2 0     264.915604967101      262.50669246941     180.814278979004
161 1 17 0     262.143291195856     260.618339201768     182.879341800391
162 1 6 0     263.335610671573     257.062895802693     181.744609567745
163 1 17 0     265.207891353158     253.942697379301     182.390513740363
164 1 4 0     266.400319218653       253.7954539369     185.722371291678
165 1 15 0      266.51704735838     250.041681889258     186.648779776453
166 1 17 0     263.169247365548     248.246803494272     185.699664671834
167 1 17 0     261.704235815065     245.500910559819     187.329025586522
168 1 11 0     261.540939047094     245.240476631883     191.431924739032
169 1 14 0      264.57553872481      247.82382991143     192.383371885233
170 1 2 0     265.928464985967     245.851914413847     195.858603400397
171 1 6 0     268.374932180789     247.619442044911     198.126235220101
172 1 4 0     270.019508853884     245.774896288392     200.882045599984
173 1 6 0     273.022334415029     245.343035460518     198.176880760883
174 1 17 0     271.347485924345     242.472595370197     196.166467430612
175 1 6 0      270.58935778823     238.926559927081     194.655788027149
176 1 17 0     272.180843498498     235.297997164101     194.850863514021
ITEM: TIMESTEP
200000
ITEM: NUMBER OF ATOMS
176
ITEM: BOX BOUNDS pp pp pp
-3.0000000000000000e+02 3.0000000000000000e+02
-3.0000000000000000e+02 3.0000000000000000e+02
-3.0000000000000000e+02 3.0000000000000000e+02
ITEM: ATOMS id mol type q xu yu zu
1 1 2 0     269.796795581259     126.458292443126      7.0073640034506
2 1 19 0     266.592911734474     124.933826035689     8.70309161979488
3 1 17 0     266.025225677083     127.478460443966     11.3769189706035
4 1 14 0      267.76652892014     128.473575791628     14.5866218294065
5 1 17 0     271.403898599687     128.144318738576     15.4508534811015
6 1 4 0     272.473756234724     126.651092660425      18.819910668706
7 1 18 0      272.40244780807     123.224287013491     19.8747851695061
8 1 12 0     274.032582337563     121.023376290945      22.874681751484
9 1 12 0     276.071846646544     121.633826531502     26.1388013618394
10 1 17 0     277.501830030906     120.388509126792     29.3447620984197
11 1 3 0.75     274.543825940473     120.228368675944     31.4894616619185
12 1 4 0     273.900783534762     116.401952139068     31.2268201772493
13 1 18 0      271.01000381499     116.208861919719     33.5084255000844
14 1 14 0     268.276021239283     114.794585833597     36.0152161168732
15 1 15 0     269.275546991357     116.278429139086     39.2746110825902
16 1 14 0     270.427796963691     119.310576263457     41.0551445134121
17 1 2 0     268.529457488163     122.406896093973     40.1950834927802
18 1 4 0     269.034306095247      126.25834054705     40.3832607623069
19 1 6 0     266.396332651552     128.440819912399     38.7636265596137
20 1 17 0     264.793528337095     130.218849950975     41.6770060151312
21 1 17 0      263.92523496324     133.413057183145     39.6245174983657
22 1 17 0      265.60434354876     137.039617182125     40.4448205000657
23 1 15 0     267.542803256828     138.398558440533     43.3137946504345
24 1 17 0     268.059594198046     141.791718071197     45.0579645895393
25 1 4 0     270.120239614955     143.279631748706     47.8985655490443
26 1 4 0     270.168974486344       145.7299856778     50.7863698767039
27 1 17 0      272.28119019152      148.06830381767     53.2061173379004
28 1 12 0     274.173970314819     149.910725938795     50.2410275046155
29 1 17 0     274.970458830183     147.791849171048     47.1586944765011
30 1 15 0     276.278939525699     146.286296093122      43.915393090743
31 1 15 0     273.244741206909     146.510067693889     41.5290984620186
32 1 4 0     271.694601991349     148.892556918233     39.5319792751608
33 1 2 0     268.371804875641     149.758315636662     41.1680211156442
34 1 6 0     266.220535447625     151.760121933559     38.5456296773502
35 1 2 0      265.01471539101     152.837807569938     41.9935223407825
36 1 6 0     263.902233173204     155.515193840957     43.8544776120512
37 1 14 0     265.011425922673     154.774407629797      47.265683955744
38 1 2 0     264.461043842535     157.501536633233     50.2981698838986
39 1 4 0      266.15869743925     160.923886542329      50.514054881698
40 1 2 0     267.434414408619     159.542530395555     54.0593638446451
41 1 12 0       268.6959760166     161.452638989434     56.6313812318696
42 1 15 0     269.560150760172     158.468919018473     58.8284758827354
43 1 4 0     271.758257218675     155.981938647662     57.5733656014989
44 1 14 0     275.258937452997     156.909760179685     58.6423545225197
45 1 2 0     275.585245777587      160.63992375224     59.3915201961532
46 1 14 0     278.713594688557     162.565999635462     60.1469485667968
47 1 17 0     281.886373166151     164.208986893818     58.2771480436237
48 1 17 0     285.457411718394     162.916154930941     59.3832050839896