ITEM: TIMESTEP
0
ITEM: NUMBER OF ATOMS
185
ITEM: BOX BOUNDS pp pp pp
-3.0000000000000000e+02 3.0000000000000000e+02
-3.0000000000000000e+02 3.0000000000000000e+02
-3.0000000000000000e+02 3.0000000000000000e+02
ITEM: ATOMS id mol type q xu yu zu
1 1 1 0 6 0 0
2 1 6 0 12 0 0
3 1 8 -0.75 18 0 0
4 1 18 0 24 0 0
5 1 5 0.75 30 0 0
6 1 12 0 36 0 0
7 1 8 -0.75 42 0 0
8 1 14 0 48 0 0
9 1 8 -0.75 54 0 0
10 1 10 0 60 0 0
11 1 1 0 66 0 0
12 1 8 -0.75 72 0 0
13 1 7 -0.75 78 0 0
14 1 16 0.375 84 0 0
15 1 6 0 90 0 0
16 1 2 0 96 0 0
17 1 4 0 102 0 0
18 1 9 0 108 0 0
19 1 2 0 114 0 0
20 1 11 0 120 0 0
21 1 2 0 126 0 0
22 1 7 -0.75 132 0 0
23 1 5 0.75 138 0 0
24 1 3 0.75 144 0 0
25 1 7 -0.75 150 0 0
26 1 12 0 156 0 0
27 1 2 0 162 0 0
28 1 2 0 168 0 0
29 1 9 0 174 0 0
30 1 4 0 180 0 0
31 1 1 0 186 0 0
32 1 16 0.375 192 0 0
33 1 12 0 198 0 0
34 1 7 -0.75 204 0 0
35 1 12 0 210 0 0
36 1 8 -0.75 216 0 0
37 1 2 0 222 0 0
38 1 7 -0.75 228 0 0
39 1 4 0 234 0 0
40 1 7 -0.75 240 0 0
41 1 6 0 246 0 0
42 1 2 0 252 0 0
43 1 11 0 258 0 0
44 1 3 0.75 264 0 0
45 1 6 0 270 0 0
46 1 8 -0.75 276 0 0
47 1 8 -0.75 282 0 0
48 1 6 0 288 0 0
49 1 2 0 294 0 0
50 1 20 0 300 0 0
51 1 2 0 300 6 0
52 1 7 -0.75 300 12 0
53 1 4 0 300 18 0
54 1 18 0 300 24 0
55 1 15 0 300 30 0
56 1 11 0 300 36 0
57 1 8 -0.75 300 42 0
58 1 7 -0.75 300 48 0
59 1 8 -0.75 300 54 0
60 1 6 0 300 60 0
61 1 6 0 300 66 0
62 1 2 0 300 72 0
63 1 16 0.375 300 78 0
64 1 10 0 300 84 0
65 1 4 0 300 90 0
66 1 12 0 300 96 0
67 1 6 0 300 102 0
68 1 5 0.75 300 108 0
69 1 1 0 300 114 0
70 1 10 0 300 120 0
71 1 15 0 300 126 0
72 1 3 0.75 300 132 0
73 1 15 0 300 138 0
74 1 3 0.75 300 144 0
75 1 7 -0.75 300 150 0
76 1 2 0 300 156 0
77 1 4 0 300 162 0
78 1 2 0 300 168 0
79 1 15 0 300 174 0
80 1 7 -0.75 300 180 0
81 1 7 -0.75 300 186 0
82 1 3 0.75 300 192 0
83 1 3 0.75 300 198 0
84 1 6 0 300 204 0
85 1 3 0.75 300 210 0
86 1 2 0 300 216 0
87 1 6 0 300 222 0
88 1 7 -0.75 300 228 0
89 1 2 0 300 234 0
90 1 3 0.75 300 240 0
91 1 4 0 300 246 0
92 1 3 0.75 300 252 0
93 1 20 0 300 258 0
94 1 6 0 300 264 0
95 1 4 0 300 270 0
96 1 18 0 300 276 0
97 1 5 0.75 300 282 0
98 1 2 0 300 288 0
99 1 6 0 300 294 0
100 1 6 0 300 300 0
101 1 18 0 300 300 6
102 1 18 0 300 300 12
103 1 2 0 300 300 18
104 1 12 0 300 300 24
105 1 3 0.75 300 300 30
106 1 2 0 300 300 36
107 1 12 0 300 300 42
108 1 6 0 300 300 48
109 1 17 0 300 300 54
110 1 6 0 300 300 60
111 1 4 0 300 300 66
112 1 5 0.75 300 300 72
113 1 20 0 300 300 78
114 1 18 0 300 300 84
115 1 6 0 300 300 90
116 1 3 0.75 300 300 96
117 1 4 0 300 300 102
118 1 18 0 300 300 108
119 1 18 0 300 300 114
120 1 6 0 300 300 120
121 1 18 0 300 300 126
122 1 3 0.75 300 300 132
123 1 4 0 300 300 138
124 1 18 0 300 300 144
125 1 18 0 300 300 150
126 1 15 0 300 300 156
127 1 15 0 300 300 162
128 1 2 0 300 300 168
129 1 8 -0.75 300 300 174
130 1 18 0 300 300 180
131 1 18 0 300 300 186
132 1 3 0.75 300 300 192
133 1 15 0 300 300 198
134 1 2 0 300 300 204
135 1 7 -0.75 300 300 210
136 1 5 0.75 300 300 216
137 1 15 0 300 300 222
138 1 2 0 300 300 228
139 1 9 0 300 300 234
140 1 15 0 300 300 240
141 1 15 0 300 300 246
142 1 18 0 300 300 252
143 1 2 0 300 300 258
144 1 15 0 300 300 264
145 1 18 0 300 300 270
146 1 2 0 300 300 276
147 1 4 0 300 300 282
148 1 18 0 300 300 288
149 1 2 0 300 300 294
150 1 15 0 300 300 300
151 1 5 0.75 300 300 306
152 1 15 0 300 300 312
153 1 5 0.75 300 300 318
154 1 4 0 300 300 324
155 1 18 0 300 300 330
156 1 15 0 300 300 336
157 1 11 0 300 300 342
158 1 18 0 300 300 348
159 1 4 0 300 300 354
160 1 18 0 300 300 360
161 1 18 0 300 300 366
162 1 4 0 300 300 372
163 1 5 0.75 300 300 378
164 1 8 -0.75 300 300 384
165 1 18 0 300 300 390
166 1 3 0.75 300 300 396
167 1 3 0.75 300 300 402
168 1 10 0 300 300 408
169 1 6 0 300 300 414
170 1 10 0 300 300 420
171 1 10 0 300 300 426
172 1 5 0.75 300 300 432
173 1 4 0 300 300 438
174 1 18 0 300 300 444
175 1 18 0 300 300 450
176 1 3 0.75 300 300 456
177 1 15 0 300 300 462
178 1 18 0 300 300 468
179 1 15 0 300 300 474
180 1 15 0 300 300 480
181 1 6 0 300 300 486
182 1 3 0.75 300 300 492
183 1 15 0 300 300 498
184 1 5 0.75 300 300 504
185 1 11 0 300 300 510
ITEM: TIMESTEP
100000
ITEM: NUMBER OF ATOMS
185
ITEM: BOX BOUNDS pp pp pp
-3.0000000000000000e+02 3.0000000000000000e+02
-3.0000000000000000e+02 3.0000000000000000e+02
-3.0000000000000000e+02 3.0000000000000000e+02
ITEM: ATOMS id mol type q xu yu zu
1 1 1 0 240.185 89.5645 19.9965
2 1 6 0 240.676 86.1194 18.5686
3 1 8 -0.75 238.805 85.0722 15.0709
4 1 18 0 238.755 86.854 11.5769
5 1 5 0.75 235.378 88.7176 12.597
6 1 12 0 231.668 88.73 13.4161
7 1 8 -0.75 229.958 86.7792 10.3094
8 1 14 0 226.508 85.3268 11.203
9 1 8 -0.75 222.803 85.0748 12.2865
10 1 10 0 223.311 86.4946 15.9386
11 1 1 0 224.378 87.6669 19.1939
12 1 8 -0.75 224 90.6475 21.2712
13 1 7 -0.75 223.819 93.4392 23.6632
14 1 16 0.375 224.439 91.9152 27.3497
15 1 6 0 225.908 88.2948 27.5984
16 1 2 0 222.82 86.8761 25.1091
17 1 4 0 219.676 85.4568 26.1969
18 1 9 0 218.124 84.6465 29.6531
19 1 2 0 220.918 86.937 31.1331
20 1 11 0 222.888 89.4964 33.0792
21 1 2 0 223.206 88.468 36.5495
22 1 7 -0.75 222.786 88.6882 40.3435
23 1 5 0.75 225.183 91.3246 41.6403
24 1 3 0.75 228.127 93.8143 41.2492
25 1 7 -0.75 228.526 97.133 43.2841
26 1 12 0 231.962 97.9564 44.391
27 1 2 0 235.032 97.7748 42.2059
28 1 2 0 235.328 98.5944 38.3926
29 1 9 0 236.611 100.975 35.5432
30 1 4 0 234.636 103.68 34.5073
31 1 1 0 233.218 106.872 36.5454
32 1 16 0.375 235.041 108.066 39.9639
33 1 12 0 235.318 104.703 42.6569
34 1 7 -0.75 232.374 103.93 45.2064
35 1 12 0 231.159 106.93 46.9615
36 1 8 -0.75 227.944 109.152 46.7048
37 1 2 0 226.286 108.159 50.2932
38 1 7 -0.75 226.717 111.323 52.6046
39 1 4 0 224.525 114.592 51.5135
40 1 7 -0.75 225.903 116.525 54.273
41 1 6 0 228.948 116.291 55.6938
42 1 2 0 228.583 116.636 59.6875
43 1 11 0 226.556 119.9 59.7954
44 1 3 0.75 226.724 122.793 61.8096
45 1 6 0 225.815 125.146 64.5007
46 1 8 -0.75 226.986 128.935 64.9255
47 1 8 -0.75 230.088 129.473 66.8969
48 1 6 0 232.958 131.353 68.5193
49 1 2 0 233.544 134.88 67.4279
50 1 20 0 235.676 137.942 68.1955
51 1 2 0 237.358 137.505 65.0082
52 1 7 -0.75 240.344 135.772 63.6086
53 1 4 0 240.634 133.058 66.8906
54 1 18 0 243.295 130.085 66.7142
55 1 15 0 243.143 126.81 68.9347
56 1 11 0 242.87 126.781 72.6686
57 1 8 -0.75 241.783 129.451 75.158
58 1 7 -0.75 239.791 127.34 77.8344
59 1 8 -0.75 241.462 126.311 80.8624
60 1 6 0 240.622 122.394 81.2924
61 1 6 0 242.65 119.936 83.4215
62 1 2 0 245.113 119.702 80.5437
63 1 16 0.375 248.728 118.128 80.7019
64 1 10 0 249.447 121.342 82.7452
65 1 4 0 251.675 122.87 85.3093
66 1 12 0 251.816 126.279 87.0778
67 1 6 0 250.342 129.589 86.0879
68 1 5 0.75 252.235 132.805 84.8105
69 1 1 0 253.857 134.739 87.5592
70 1 10 0 254.676 138.351 88.3403
71 1 15 0 254.784 142.146 87.6336
72 1 3 0.75 254.535 142.483 91.5064
73 1 15 0 254.573 145.923 93.2608
74 1 3 0.75 253.648 148.765 95.7205
75 1 7 -0.75 252.332 152.249 97.1158
76 1 2 0 254.279 154.523 99.0438
77 1 4 0 255.753 157.65 100.251
78 1 2 0 256.39 161.473 100.878
79 1 15 0 259.47 161.24 103.151
80 1 7 -0.75 259.779 159.319 106.371
81 1 7 -0.75 259.124 162.499 108.265
82 1 3 0.75 257.093 165.584 107.541
83 1 3 0.75 255.385 167.109 110.329
84 1 6 0 254.052 169.972 108.757
85 1 3 0.75 255.126 173.189 110.099
86 1 2 0 252.77 172.408 112.686
87 1 6 0 254.077 174.631 114.998
88 1 7 -0.75 254.492 178.307 114.852
89 1 2 0 253.06 177.581 118.182
90 1 3 0.75 255.737 179.875 119.818
91 1 4 0 254.134 182.274 122.467
92 1 3 0.75 252.628 185.683 122.02
93 1 20 0 253.384 188.363 124.917
94 1 6 0 257.016 188.991 123.996
95 1 4 0 257.461 191.989 121.411
96 1 18 0 258.13 195.676 122.427
97 1 5 0.75 260.069 198.913 122.234
98 1 2 0 260.244 202.591 121.612
99 1 6 0 259.218 206.189 121.323
100 1 6 0 255.403 205.594 122.41
101 1 18 0 254.386 204.837 125.905
102 1 18 0 255.391 204.659 129.526
103 1 2 0 256.719 206.636 132.38
104 1 12 0 260.213 208.131 132.463
105 1 3 0.75 258.935 209.842 135.588
106 1 2 0 257.692 207.18 138.051
107 1 12 0 257.568 207.269 141.676
108 1 6 0 254.33 207.474 143.423
109 1 17 0 252.699 204.012 144.342
110 1 6 0 249.704 202.672 142.708
111 1 4 0 246.421 204.961 142.959
112 1 5 0.75 246.637 207.983 145.286
113 1 20 0 243.983 206.706 147.567
114 1 18 0 243.437 208.015 151.174
115 1 6 0 241.957 208.283 154.814
116 1 3 0.75 242.467 206.7 158.302
117 1 4 0 240.731 204.586 160.878
118 1 18 0 238.358 206.73 162.815
119 1 18 0 234.766 206.662 163.596
120 1 6 0 233.276 209.944 162.236
121 1 18 0 235.047 213.194 163.776
122 1 3 0.75 236.65 216.761 162.518
123 1 4 0 234.472 219.965 162.762
124 1 18 0 236.108 222.933 164.452
125 1 18 0 238.242 226.056 165.133
126 1 15 0 240.549 227.119 167.724
127 1 15 0 240.193 224.841 170.774
128 1 2 0 237.651 226.655 173.484
129 1 8 -0.75 239.224 226.469 176.729
130 1 18 0 242.238 223.944 177.491
131 1 18 0 243.978 223.679 181.059
132 1 3 0.75 244.891 220.344 182.902
133 1 15 0 248.029 221.226 184.501
134 1 2 0 250.322 222.828 186.691
135 1 7 -0.75 254.07 223.099 187.286
136 1 5 0.75 257.147 224.169 188.923
137 1 15 0 259.319 222.179 191.356
138 1 2 0 261.975 221.023 193.619
139 1 9 0 261.874 222.216 197.206
140 1 15 0 263.109 225.315 199.102
141 1 15 0 265.798 226.476 196.409
142 1 18 0 268.57 225.674 198.414
143 1 2 0 269.785 222.726 200.485
144 1 15 0 270.184 224.516 203.999
145 1 18 0 269.133 225.023 207.707
146 1 2 0 272.7 225.887 208.733
147 1 4 0 272.085 224.105 212.39
148 1 18 0 275.134 226.134 213.803
149 1 2 0 277.128 223.836 215.699
150 1 15 0 276.488 220.216 214.283
151 1 5 0.75 277.381 219.245 218.116
152 1 15 0 274.811 219.561 220.878
153 1 5 0.75 272.548 221.921 222.708
154 1 4 0 272.876 220.484 226.122
155 1 18 0 275.083 218.104 228.289
156 1 15 0 278.138 220.486 227.382
157 1 11 0 279.727 222.118 224.407
158 1 18 0 282.812 223.239 222.557
159 1 4 0 286.012 224.122 221.208
160 1 18 0 285.035 225.415 218.012
161 1 18 0 284.862 228.994 217.7
162 1 4 0 281.77 230.287 215.994
163 1 5 0.75 281.075 233.892 217.523
164 1 8 -0.75 280.254 237.121 215.319
165 1 18 0 278.095 237.188 212.013
166 1 3 0.75 274.294 237.674 212.411
167 1 3 0.75 271.352 236.803 210.075
168 1 10 0 272.958 234.903 207.185
169 1 6 0 275.158 236.765 204.531
170 1 10 0 271.844 237.752 202.874
171 1 10 0 269.063 240.564 203.08
172 1 5 0.75 267.439 243.596 204.027
173 1 4 0 266.398 245.558 206.912
174 1 18 0 264.876 248.801 208.388
175 1 18 0 264.233 251.867 206.274
176 1 3 0.75 266.304 255.108 206.33
177 1 15 0 265.067 258.445 205.297
178 1 18 0 263.43 260.709 202.315
179 1 15 0 264.205 261.385 198.447
180 1 15 0 264.886 258.215 196.381
181 1 6 0 268.499 257.86 195.149
182 1 3 0.75 271.613 259.073 195.87
183 1 15 0 271.1 262.766 196.461
184 1 5 0.75 270.884 265.807 193.968
185 1 11 0 273.652 268.633 195.156
ITEM: TIMESTEP
200000
ITEM: NUMBER OF ATOMS
185
ITEM: BOX BOUNDS pp pp pp
-3.0000000000000000e+02 3.0000000000000000e+02
-3.0000000000000000e+02 3.0000000000000000e+02
-3.0000000000000000e+02 3.0000000000000000e+02
ITEM: ATOMS id mol type q xu yu zu
1 1 1 0 250.575 127.872 48.8028
2 1 6 0 246.941 127.524 48.255
3 1 8 -0.75 244.563 130.393 49.5881
4 1 18 0 242.492 133.124 51.3922
5 1 5 0.75 239.42 131.246 53.3348
6 1 12 0 237.942 130.885 56.8728
7 1 8 -0.75 241.768 130.741 57.4064
8 1 14 0 243.212 127.75 59.1153
9 1 8 -0.75 244.648 126.283 62.5216
10 1 10 0 243.223 122.939 64.4978
11 1 1 0 241.235 123.444 67.9362
12 1 8 -0.75 242.09 122.332 71.3679
13 1 7 -0.75 239.587 121.214 74.3125
14 1 16 0.375 242.79 122.562 75.3812
15 1 6 0 246.081 124.497 75.8968
16 1 2 0 248.409 121.816 77.2894
17 1 4 0 248.958 121.925 80.8875
18 1 9 0 248.314 120.118 84.4686
19 1 2 0 244.916 121.53 85.528
20 1 11 0 241.464 121.253 84.262
21 1 2 0 241.283 121.166 80.3286
22 1 7 -0.75 243.39 118.496 78.7448
23 1 5 0.75 245.511 116.196 75.8749
24 1 3 0.75 248.623 116.525 77.9127
25 1 7 -0.75 252.149 117.072 78.9192
26 1 12 0 255.601 117.196 77.1126
27 1 2 0 254.22 120.268 75.1351
28 1 2 0 253.41 123.028 72.5461
29 1 9 0 250.105 123.663 70.572
30 1 4 0 248.388 126.722 71.1685
31 1 1 0 249 130 69.6926
32 1 16 0.375 252.486 131.543 69.8038
33 1 12 0 256.108 131.84 71.0588
34 1 7 -0.75 257.301 128.114 71.1982
35 1 12 0 258.919 126.675 73.9176
36 1 8 -0.75 257.115 127.327 77.3058
37 1 2 0 254.271 129.535 75.5946
38 1 7 -0.75 252.417 132.447 76.735
39 1 4 0 248.969 132.399 78.1709
40 1 7 -0.75 248.549 131.814 82.1355
41 1 6 0 249.421 131.485 85.6336
42 1 2 0 250.43 133.335 88.9156
43 1 11 0 248.736 136.712 88.1264
44 1 3 0.75 249.686 140.258 86.897
45 1 6 0 249.774 139.852 82.9874
46 1 8 -0.75 251.174 143.041 84.8451
47 1 8 -0.75 247.883 144.778 84.9053
48 1 6 0 244.706 146.1 84.8084
49 1 2 0 245.18 146.739 81.1345
50 1 20 0 242.349 149.713 80.2435
51 1 2 0 241.322 152.992 78.7537
52 1 7 -0.75 244.199 155.238 78.6518
53 1 4 0 246.448 156.925 80.9753
54 1 18 0 248.936 159.701 80.3353
55 1 15 0 247.537 160.903 83.6806
56 1 11 0 248.067 164.809 83.9288
57 1 8 -0.75 249.852 166.687 86.8177
58 1 7 -0.75 253.235 164.661 88.4667
59 1 8 -0.75 254.965 161.148 87.8424
60 1 6 0 255.106 158.621 90.7965
61 1 6 0 251.951 159.123 93.2426
62 1 2 0 251.547 156.018 91.1108
63 1 16 0.375 248.799 155.074 88.8798
64 1 10 0 245.707 152.832 89.4311
65 1 4 0 243.031 154.936 90.2853
66 1 12 0 241.385 154.663 93.6114
67 1 6 0 243.324 154.177 97.078
68 1 5 0.75 246.547 155.604 98.8505
69 1 1 0 245.086 157.303 101.56
70 1 10 0 242.395 157.122 104.222
71 1 15 0 240.33 159.933 102.886
72 1 3 0.75 238.491 162.911 102.742
73 1 15 0 240.484 166.192 103.671
74 1 3 0.75 243.595 167.524 102.055
75 1 7 -0.75 241.148 169.543 99.2305
76 1 2 0 243.986 169.467 96.7345
77 1 4 0 243.958 171.325 93.5172
78 1 2 0 246.798 173.975 91.9566
79 1 15 0 245.692 177.644 92.6533
80 1 7 -0.75 245.602 178.814 96.4581
81 1 7 -0.75 248.905 177.149 98.398
82 1 3 0.75 248.61 179.75 100.85
83 1 3 0.75 249.909 183.235 101.302
84 1 6 0 251.101 187.183 102.073
85 1 3 0.75 247.95 188.808 103.592
86 1 2 0 250.198 191.377 105.135
87 1 6 0 253.722 192.19 106.2
88 1 7 -0.75 256.358 189.63 106.635
89 1 2 0 256.598 191.275 109.794
90 1 3 0.75 256.143 188.383 111.986
91 1 4 0 254.614 188.579 115.478
92 1 3 0.75 256.654 189.528 118.822
93 1 20 0 257.488 192.984 119.451
94 1 6 0 257.002 196.557 117.6
95 1 4 0 259.274 197.93 114.882
96 1 18 0 257.496 201.035 113.389
97 1 5 0.75 253.891 200.719 111.724
98 1 2 0 252.107 203.846 110.778
99 1 6 0 248.469 203.758 109.996
100 1 6 0 244.945 204.562 110.992
101 1 18 0 245.411 203.214 114.496
102 1 18 0 242.819 203.143 117.367
103 1 2 0 243.527 204.365 120.859
104 1 12 0 241.911 203.021 123.832
105 1 3 0.75 243.668 201.045 126.669
106 1 2 0 246.647 202.338 129.513
107 1 12 0 250.23 203.447 129.142
108 1 6 0 251.696 199.807 129.075
109 1 17 0 253.191 197.367 131.8
110 1 6 0 249.806 198.452 133.667
111 1 4 0 246.665 199.633 135.24
112 1 5 0.75 246.333 198.23 138.702
113 1 20 0 243.573 195.612 139.21
114 1 18 0 242.38 193.549 136.296
115 1 6 0 241.699 190.803 138.433
116 1 3 0.75 243.999 188.59 140.365
117 1 4 0 247.286 189.199 142.706
118 1 18 0 249.333 187.665 145.429
119 1 18 0 249.868 191.054 147.027
120 1 6 0 251.629 192.288 144.158
121 1 18 0 253.338 195.089 146.217
122 1 3 0.75 254.932 198.33 145.087
123 1 4 0 256.998 201.085 146.975
124 1 18 0 258.171 203.531 144.483
125 1 18 0 256.928 206.706 142.841
126 1 15 0 256.637 210.258 141.721
127 1 15 0 259.714 211.787 141.967
128 1 2 0 262.74 214.665 142.014
129 1 8 -0.75 266.458 215.917 142.751
130 1 18 0 269.932 215.276 141.744
131 1 18 0 269.882 211.977 144.383
132 1 3 0.75 272 212.682 148.032
133 1 15 0 273.174 212.255 151.323
134 1 2 0 272.863 210.45 154.857
135 1 7 -0.75 272.202 212.812 157.588
136 1 5 0.75 274.346 211.906 160.258
137 1 15 0 277.845 211.742 158.666
138 1 2 0 280.116 211.45 155.427
139 1 9 0 280.137 209.499 152.172
140 1 15 0 281.09 206.138 154.181
141 1 15 0 281.201 205.744 158
142 1 18 0 283.845 207.673 159.971
143 1 2 0 283.994 206.036 163.524
144 1 15 0 281.731 208.312 165.278
145 1 18 0 280.337 211.666 164.514
146 1 2 0 281.173 215.438 164.519
147 1 4 0 280.831 217.411 161.615
148 1 18 0 284.244 216.862 160.13
149 1 2 0 285.583 219.58 162.625
150 1 15 0 287.264 222.239 164.94
151 1 5 0.75 288.916 220.528 168.349
152 1 15 0 287.109 220.172 172.137
153 1 5 0.75 289.055 220.627 175.266
154 1 4 0 291.067 217.555 176.792
155 1 18 0 291.298 213.766 175.931
156 1 15 0 291.431 210.764 177.961
157 1 11 0 292.806 208.991 181.016
158 1 18 0 295.437 211.14 182.4
159 1 4 0 296.16 214.403 183.209
160 1 18 0 298.001 217.227 182.054
161 1 18 0 300.17 218.879 184.485
162 1 4 0 303.171 220.726 183.889
163 1 5 0.75 303.047 221.685 180.122
164 1 8 -0.75 300.861 224.71 180.873
165 1 18 0 297.432 225.804 180.69
166 1 3 0.75 297.489 226.11 184.676
167 1 3 0.75 298.4 229.827 185.27
168 1 10 0 301.526 230.963 187.499
169 1 6 0 303.345 232.292 184.462
170 1 10 0 305.306 228.952 184.759
171 1 10 0 308.396 226.544 185.157
172 1 5 0.75 311.443 224.898 184.347
173 1 4 0 313.127 226.53 181.315
174 1 18 0 315.884 228.921 182.534
175 1 18 0 315.699 231.781 184.892
176 1 3 0.75 317.254 235.415 185.03
177 1 15 0 319.597 237.175 182.919
178 1 18 0 318.715 237.956 179.117
179 1 15 0 320.11 240.662 176.945
180 1 15 0 318.307 241.114 173.86
181 1 6 0 315.742 242.145 171.217
182 1 3 0.75 315.015 246.164 170.898
183 1 15 0 317.033 248.469 168.064
184 1 5 0.75 320.237 248.74 165.877
185 1 11 0 322.724 251.318 167.27
ITEM: TIMESTEP
300000
ITEM: NUMBER OF ATOMS
185
ITEM: BOX BOUNDS pp pp pp
-3.0000000000000000e+02 3.0000000000000000e+02
-3.0000000000000000e+02 3.0000000000000000e+02
-3.0000000000000000e+02 3.0000000000000000e+02
ITEM: ATOMS id mol type q xu yu zu
1 1 1 0 207.407 117.378 81.9476
2 1 6 0 205.627 119.724 84.3883
3 1 8 -0.75 202.884 120.75 81.468
4 1 18 0 204.149 123.489 79.2227
5 1 5 0.75 206.405 123.705 76.1569
6 1 12 0 205.789 125.79 73.1716
7 1 8 -0.75 202.19 127.104 73.8382
8 1 14 0 198.76 126.155 74.0925
9 1 8 -0.75 196.404 125.588 77.1061
10 1 10 0 193.094 123.788 75.65
11 1 1 0 193.018 120.652 73.6132
12 1 8 -0.75 195.146 118.825 71.1437
13 1 7 -0.75 198.767 119.78 70.2658
14 1 16 0.375 200.302 117.443 72.6032
15 1 6 0 199.242 114.398 70.7914
16 1 2 0 200.731 110.929 71.7429
17 1 4 0 200.002 110.632 75.4245
18 1 9 0 202.333 113.098 76.9162
19 1 2 0 204.297 110.145 78.5127
20 1 11 0 208.038 110.012 79.0944
21 1 2 0 209.208 113.577 78.8095
22 1 7 -0.75 212.99 113.617 78.4591
23 1 5 0.75 214.933 116.56 80.3381
24 1 3 0.75 215.241 116.342 84.2369
25 1 7 -0.75 219.366 116.736 83.5815
26 1 12 0 222.923 116.121 82.6524
27 1 2 0 222.178 115.306 79.0569
28 1 2 0 220.251 113.796 76.1002
29 1 9 0 219.431 117.015 73.9811
30 1 4 0 217.418 119.392 76.1414
31 1 1 0 215.971 122.873 76.895
32 1 16 0.375 216.229 125.695 79.6587
33 1 12 0 217.844 127.314 82.6625
34 1 7 -0.75 219.112 130.253 84.4846
35 1 12 0 220.734 131.438 87.3965
36 1 8 -0.75 219.369 134.532 89.1863
37 1 2 0 222.61 136.726 88.7923
38 1 7 -0.75 226.159 138.228 87.4821
39 1 4 0 226.758 138.036 83.3236
40 1 7 -0.75 229.222 141.309 83.103
41 1 6 0 231.479 144.374 81.5669
42 1 2 0 233.056 143.609 85.1874
43 1 11 0 234.804 146.936 85.8611
44 1 3 0.75 235.608 149.154 82.739
45 1 6 0 237.175 152.394 83.7943
46 1 8 -0.75 237.359 152.526 87.7908
47 1 8 -0.75 239.892 150.773 90.0895
48 1 6 0 241.599 150.407 93.426
49 1 2 0 244.612 151.844 92.1188
50 1 20 0 247.728 153.347 93.9496
51 1 2 0 246.2 151.377 96.6049
52 1 7 -0.75 244.469 153.042 99.2004
53 1 4 0 245.435 155.278 102.016
54 1 18 0 248.591 156.643 100.232
55 1 15 0 252.201 155.825 101.724
56 1 11 0 254.47 158.977 102.525
57 1 8 -0.75 257.302 160.984 103.95
58 1 7 -0.75 260.103 162.948 102.531
59 1 8 -0.75 262.737 164.004 104.49
60 1 6 0 262.934 163.562 108.119
61 1 6 0 263.655 167.06 109.566
62 1 2 0 264.264 170.127 107.717
63 1 16 0.375 266.178 170.65 104.35
64 1 10 0 269.711 169.077 105.545
65 1 4 0 269.571 165.776 102.96
66 1 12 0 272.108 162.668 103.142
67 1 6 0 269.88 160.918 100.08
68 1 5 0.75 268.565 162.437 97.1303
69 1 1 0 266.251 165.923 97.8285
70 1 10 0 263.304 168.222 97.5846
71 1 15 0 260.011 169.546 95.5883
72 1 3 0.75 258.989 168.555 92.0491
73 1 15 0 258.372 171.855 90.1934
74 1 3 0.75 258.439 174.953 92.5151
75 1 7 -0.75 254.832 174.6 93.7985
76 1 2 0 254.987 177.475 96.5205
77 1 4 0 252.932 178.532 99.2946
78 1 2 0 250.663 177.097 101.802
79 1 15 0 247.312 175.331 101.225
80 1 7 -0.75 245.386 176.14 104.335
81 1 7 -0.75 242.565 178.486 103.743
82 1 3 0.75 241.911 178.784 107.367
83 1 3 0.75 239.051 181.58 106.763
84 1 6 0 236.84 184.031 108.188
85 1 3 0.75 236.918 186.088 111.439
86 1 2 0 237.894 188.11 114.268
87 1 6 0 241.949 188.363 113.737
88 1 7 -0.75 243.437 190.611 111.336
89 1 2 0 241.978 192.861 107.944
90 1 3 0.75 243.199 196.446 108.852
91 1 4 0 241.158 198.538 110.747
92 1 3 0.75 241.894 199.699 114.432
93 1 20 0 244.595 197.061 114.345
94 1 6 0 246.422 193.795 116.221
95 1 4 0 248.54 191.057 117.889
96 1 18 0 252.465 191.154 117.847
97 1 5 0.75 255.099 191.068 121.11
98 1 2 0 255.044 195.25 121.329
99 1 6 0 252.759 196.766 124.291
100 1 6 0 248.962 196.415 125.857
101 1 18 0 246.431 193.916 128.142
102 1 18 0 249.585 191.807 127.511
103 1 2 0 253.138 190.927 128.299
104 1 12 0 255.077 188.706 130.727
105 1 3 0.75 256.798 189.619 133.988
106 1 2 0 255.128 192.989 133.623
107 1 12 0 254.03 196.962 133.506
108 1 6 0 255.403 198.746 136.398
109 1 17 0 253.09 201.209 138.131
110 1 6 0 252.932 203.595 141.274
111 1 4 0 256.613 203.152 142.028
112 1 5 0.75 259.774 203.813 140.342
113 1 20 0 263.352 202.901 139.337
114 1 18 0 265.772 204.152 136.695
115 1 6 0 265.624 208.064 135.755
116 1 3 0.75 264.856 211.118 138.668
117 1 4 0 265.239 211.194 142.646
118 1 18 0 262.788 211.557 145.386
119 1 18 0 263.713 211.541 149.136
120 1 6 0 262.323 213.571 152.194
121 1 18 0 264.08 210.742 154.284
122 1 3 0.75 267.426 208.651 153.712
123 1 4 0 269.525 210.196 156.844
124 1 18 0 273.124 210.453 156.893
125 1 18 0 276.491 209.763 158.615
126 1 15 0 277.96 208.319 161.763
127 1 15 0 277.338 204.896 162.924
128 1 2 0 275.705 204.516 159.444
129 1 8 -0.75 271.983 203.843 159.019
130 1 18 0 270.893 201.166 161.615
131 1 18 0 270.64 197.472 163.009
132 1 3 0.75 271.341 193.906 161.681
133 1 15 0 272.932 190.596 161.763
134 1 2 0 274.273 187.566 159.194
135 1 7 -0.75 277.838 187.022 158.597
136 1 5 0.75 278.019 183.436 157.226
137 1 15 0 279.033 181.112 154.243
138 1 2 0 276.486 181.873 151.286
139 1 9 0 278.466 184.255 149.016
140 1 15 0 280.057 186.427 151.76
141 1 15 0 279.178 189.435 153.976
142 1 18 0 281.381 191.56 156.48
143 1 2 0 278.966 192.271 159.467
144 1 15 0 278.402 192.852 163.415
145 1 18 0 276.762 196.396 163.386
146 1 2 0 275.183 196.923 166.849
147 1 4 0 274.475 200.533 167.655
148 1 18 0 272.69 203.865 168.025
149 1 2 0 272.728 206.214 164.838
150 1 15 0 269.029 206.024 164.761
151 1 5 0.75 266.964 208.866 166.527
152 1 15 0 269.53 209.287 169.246
153 1 5 0.75 272.24 210.08 172
154 1 4 0 270.659 212.127 174.994
155 1 18 0 272.108 216.06 174.998
156 1 15 0 272.03 218.589 177.797
157 1 11 0 275.247 219.269 179.936
158 1 18 0 274.78 217.571 183.383
159 1 4 0 277.193 216.057 186.049
160 1 18 0 277.62 215.032 189.987
161 1 18 0 276.321 216.148 193.645
162 1 4 0 274.426 213.302 195.158
163 1 5 0.75 271.535 213.212 197.617
164 1 8 -0.75 272.055 211.535 200.906
165 1 18 0 273.353 211.746 204.291
166 1 3 0.75 273.322 212.17 208.102
167 1 3 0.75 276.164 212.048 210.621
168 1 10 0 279.656 210.943 209.122
169 1 6 0 280.84 211.189 205.527
170 1 10 0 284.444 210.521 203.398
171 1 10 0 286.543 211.056 200.4
172 1 5 0.75 285.175 208.361 197.81
173 1 4 0 288.605 208.011 196.075
174 1 18 0 288.68 204.528 194.107
175 1 18 0 288.752 202.398 197.143
176 1 3 0.75 288.282 199.165 199.034
177 1 15 0 289.481 197.811 202.925
178 1 18 0 286.566 195.154 203.987
179 1 15 0 286.357 192.177 201.29
180 1 15 0 284.565 194.126 198.523
181 1 6 0 285.973 194.868 195.184
182 1 3 0.75 286.259 191.831 193.019
183 1 15 0 286.581 191.813 189.462
184 1 5 0.75 287.532 189.181 186.354
185 1 11 0 289.794 190.624 183.658
ITEM: TIMESTEP
400000
ITEM: NUMBER OF ATOMS
185
ITEM: BOX BOUNDS pp pp pp
-3.0000000000000000e+02 3.0000000000000000e+02
-3.0000000000000000e+02 3.0000000000000000e+02
-3.0000000000000000e+02 3.0000000000000000e+02
ITEM: ATOMS id mol type q xu yu zu
1 1 1 0 196.953 126.611 87.7605
2 1 6 0 194.154 124.704 88.6395
3 1 8 -0.75 192.354 123.62 91.883
4 1 18 0 190.383 125.992 93.746
5 1 5 0.75 192.371 127.601 96.1464
6 1 12 0 196.065 126.563 96.7182
7 1 8 -0.75 196.968 123.322 96.0153
8 1 14 0 195.782 119.943 97.0052
9 1 8 -0.75 196.821 119.765 100.713
10 1 10 0 197.649 123.101 102.752
11 1 1 0 200.075 125.855 103.689
12 1 8 -0.75 197.512 128.682 103.151
13 1 7 -0.75 196.033 131.621 104.849
14 1 16 0.375 198.253 133.289 107.676
15 1 6 0 201.616 131.822 106.263
16 1 2 0 203.772 130.039 108.897
17 1 4 0 202.99 126.824 109.851
18 1 9 0 199.47 126.021 111.496
19 1 2 0 199.788 126.525 115.383
20 1 11 0 200.132 123.289 117.143
21 1 2 0 202.179 120.424 117.027
22 1 7 -0.75 204.708 121.084 114.511
23 1 5 0.75 207.106 118.38 116.283
24 1 3 0.75 208.715 115.296 114.548
25 1 7 -0.75 211.816 113.575 113.925
26 1 12 0 215.436 114.199 113.382
27 1 2 0 218.717 113.521 111.291
28 1 2 0 218.606 117.094 109.755
29 1 9 0 216.324 117.71 106.945
30 1 4 0 214.577 116.805 103.843
31 1 1 0 212.62 114.542 101.455
32 1 16 0.375 212.641 113.888 98.0728
33 1 12 0 215.717 114.421 96.2199
34 1 7 -0.75 218.081 116.98 97.9297
35 1 12 0 221.446 115.667 98.7766
36 1 8 -0.75 223.713 113.984 101.155
37 1 2 0 227.335 112.559 99.9538
38 1 7 -0.75 228.444 110.782 97.0626
39 1 4 0 231.585 112.61 95.9351
40 1 7 -0.75 234.177 114.471 98.4311
41 1 6 0 232.424 117.728 97.4005
42 1 2 0 235.17 119.786 96.3179
43 1 11 0 237.553 122.632 96.4864
44 1 3 0.75 240.284 124.575 94.5147
45 1 6 0 242.166 127.741 95.3496
46 1 8 -0.75 245.034 125.217 94.8603
47 1 8 -0.75 246.066 124.596 98.666
48 1 6 0 245.525 125.199 102.411
49 1 2 0 248.558 126.938 103.45
50 1 20 0 246.596 129.342 105.597
51 1 2 0 248.85 132.076 104.214
52 1 7 -0.75 250.306 134.476 101.65
53 1 4 0 251.798 136.26 98.3092
54 1 18 0 249.96 137.931 95.007
55 1 15 0 247.093 138.081 92.7303
56 1 11 0 243.716 139.372 91.0747
57 1 8 -0.75 240.133 139.906 91.2349
58 1 7 -0.75 237.927 139.946 94.1915
59 1 8 -0.75 237.201 140.051 97.9055
60 1 6 0 235.041 143.142 98.3938
61 1 6 0 233.54 145.046 95.0808
62 1 2 0 232.68 148.061 92.9212
63 1 16 0.375 234.798 148.464 89.4548
64 1 10 0 236.467 151.602 90.4108
65 1 4 0 239.571 151.13 92.2808
66 1 12 0 241.981 153.272 90.2526
67 1 6 0 242.228 156.302 87.8386
68 1 5 0.75 243.972 157.053 84.6717
69 1 1 0 247.583 157.691 83.4211
70 1 10 0 250.454 159.41 84.7609
71 1 15 0 253.761 160.786 86.7919
72 1 3 0.75 255.633 162.087 89.3405
73 1 15 0 257.294 165.186 88.6485
74 1 3 0.75 256.513 168.219 90.5896
75 1 7 -0.75 254.682 170.62 93.2277
76 1 2 0 251.417 170.201 95.4511
77 1 4 0 249.694 173.097 96.886
78 1 2 0 251.832 174.513 99.7649
79 1 15 0 250.824 171.16 101.162
80 1 7 -0.75 251.769 170.561 104.711
81 1 7 -0.75 253.64 172.176 107.641
82 1 3 0.75 250.776 170.388 109.708
83 1 3 0.75 249.102 173.345 107.556
84 1 6 0 245.396 173.824 105.875
85 1 3 0.75 243.406 175.869 103.491
86 1 2 0 243.521 179.143 105.429
87 1 6 0 240.258 180.754 105.271
88 1 7 -0.75 237.105 179.876 107.019
89 1 2 0 233.976 181.229 108.912
90 1 3 0.75 236.599 181.714 111.551
91 1 4 0 238.503 181.832 114.791
92 1 3 0.75 240.846 179.787 116.959
93 1 20 0 244.198 180.815 118.091
94 1 6 0 246.817 183.747 117.14
95 1 4 0 247.727 183.993 120.806
96 1 18 0 248.124 180.401 122.57
97 1 5 0.75 248.958 177.509 125.189
98 1 2 0 252.763 177.677 126.673
99 1 6 0 252.196 180.389 129.155
100 1 6 0 250.944 178.54 131.964
101 1 18 0 251.233 175.181 132.12
102 1 18 0 247.402 174.427 132.741
103 1 2 0 245.831 178.021 133.053
104 1 12 0 245.391 181.522 134.438
105 1 3 0.75 248.337 181.323 136.456
106 1 2 0 246.655 181.875 139.876
107 1 12 0 247.253 179.78 143.177
108 1 6 0 248.206 176.428 141.793
109 1 17 0 251.733 176.583 140.088
110 1 6 0 253.958 176.185 143.185
111 1 4 0 255.647 175.336 146.454
112 1 5 0.75 258.758 177.225 148.283
113 1 20 0 262.062 177.178 146.256
114 1 18 0 264.402 176.459 143.525
115 1 6 0 265.569 179.507 141.955
116 1 3 0.75 265.8 183.184 140.444
117 1 4 0 268.141 184.288 143.283
118 1 18 0 268.174 186.216 146.824
119 1 18 0 269.761 185.222 150.139
120 1 6 0 271.127 185.659 153.792
121 1 18 0 275.201 185.846 154.385
122 1 3 0.75 275.087 187.735 157.693
123 1 4 0 273.712 190.954 159.751
124 1 18 0 270.051 191.674 159.637
125 1 18 0 266.888 189.948 160.29
126 1 15 0 263.795 192.119 160.141
127 1 15 0 260.539 190.821 161.555
128 1 2 0 260.592 187.085 161.63
129 1 8 -0.75 263.398 184.388 162.292
130 1 18 0 263.932 181.645 159.738
131 1 18 0 262.692 178.56 159.925
132 1 3 0.75 260.107 176.778 162.577
133 1 15 0 258.425 178.59 165.668
134 1 2 0 262.282 179.891 166.84
135 1 7 -0.75 265.64 181.79 167.233
136 1 5 0.75 267.706 184.88 166.634
137 1 15 0 270.939 182.657 166.544
138 1 2 0 273.372 184.512 168.344
139 1 9 0 274.065 185.924 172.119
140 1 15 0 277.146 186.543 174.455
141 1 15 0 279.41 188.466 175.889
142 1 18 0 280.043 189.996 179.407
143 1 2 0 280.161 190.359 183.473
144 1 15 0 281.197 194.003 182.797
145 1 18 0 282.906 197.169 181.016
146 1 2 0 283.815 195.283 177.894
147 1 4 0 287.822 195.317 177.44
148 1 18 0 291.308 194.075 176.435
149 1 2 0 292.548 194.259 180.089
150 1 15 0 291.368 195.744 183.388
151 1 5 0.75 289.607 199.124 184.496
152 1 15 0 288.426 198.702 187.666
153 1 5 0.75 289.395 195.965 190.627
154 1 4 0 290.865 193.029 188.251
155 1 18 0 294.181 192.663 186.522
156 1 15 0 296.344 191.487 189.307
157 1 11 0 298.48 194.351 190.586
158 1 18 0 296.069 194.362 193.562
159 1 4 0 298.45 195.308 196.369
160 1 18 0 298.89 191.64 197.451
161 1 18 0 301.309 191.301 199.894
162 1 4 0 304.667 189.778 199.146
163 1 5 0.75 307.516 191.208 200.527
164 1 8 -0.75 309.55 193.633 198.118
165 1 18 0 307.826 197.154 197.051
166 1 3 0.75 304.912 199.051 196.776
167 1 3 0.75 303.065 200.256 200.11