LAMMPS (10 Mar 2021)
Reading data file ...
  orthogonal box = (-300.00000 -300.00000 -300.00000) to (300.00000 300.00000 300.00000)
  1 by 1 by 1 MPI processor grid
  reading atoms ...
  185 atoms
  scanning bonds ...
  1 = max bonds/atom
  reading bonds ...
  184 bonds
Finding 1-2 1-3 1-4 neighbors ...
  special bond factors lj:    0        0        0       
  special bond factors coul:  0        0        0       
     2 = max # of 1-2 neighbors
     2 = max # of 1-3 neighbors
     4 = max # of 1-4 neighbors
     6 = max # of special neighbors
  special bonds CPU = 0.000 seconds
  read_data CPU = 0.003 seconds
Setting atom values ...
  17 settings made for charge
Setting atom values ...
  0 settings made for charge
Setting atom values ...
  11 settings made for charge
Setting atom values ...
  0 settings made for charge
Setting atom values ...
  3 settings made for charge
Setting atom values ...
  0 settings made for charge
Setting atom values ...
  13 settings made for charge
Setting atom values ...
  0 settings made for charge
Setting atom values ...
  11 settings made for charge
Setting atom values ...
  0 settings made for charge
Finding 1-2 1-3 1-4 neighbors ...
  special bond factors lj:    0        1        1       
  special bond factors coul:  0        1        1       
     2 = max # of 1-2 neighbors
     6 = max # of special neighbors
  special bonds CPU = 0.000 seconds
New timer settings: style=normal  mode=nosync  timeout=11:50:00

CITE-CITE-CITE-CITE-CITE-CITE-CITE-CITE-CITE-CITE-CITE-CITE-CITE

Your simulation uses code contributions which should be cited:

- neighbor multi command:

@Article{Intveld08,
 author =  {P.{\,}J.~in{\,}'t~Veld and S.{\,}J.~Plimpton and G.{\,}S.~Grest},
 title =   {Accurate and Efficient Methods for Modeling Colloidal
            Mixtures in an Explicit Solvent using Molecular Dynamics},
 journal = {Comp.~Phys.~Comm.},
 year =    2008,
 volume =  179,
 pages =   {320--329}
}

CITE-CITE-CITE-CITE-CITE-CITE-CITE-CITE-CITE-CITE-CITE-CITE-CITE

Neighbor list info ...
  update every 10 steps, delay 0 steps, check yes
  max neighbors/atom: 2000, page size: 100000
  master list distance cutoff = 38.5
  ghost atom cutoff = 38.5
  binsize = 8.7926654, bins = 69 69 69
  2 neighbor lists, perpetual/occasional/extra = 2 0 0
  (1) pair wf/cut, perpetual
      attributes: half, newton on
      pair build: half/multi/newton
      stencil: half/multi/3d/newton
      bin: standard
  (2) pair coul/debye, perpetual, skip from (1)
      attributes: half, newton on
      pair build: skip
      stencil: none
      bin: none
Per MPI rank memory allocation (min/avg/max) = 10.87 | 10.87 | 10.87 Mbytes
Step PotEng Press KinEng Temp Lx Ly Lz Pzz S/CPU Density 
       0    8471.5597   -4.9123262            0            0          600          600          600   -6.8077985            0 0.00014665257 
    1000    121.04426 -0.076045142     796.1562    1451.5973          600          600          600  -0.13208915     14352.16 0.00014665257 
    2000    40.302511 -0.00021655418    179.34558    326.99307          600          600          600 -0.016099945    19771.023 0.00014665257 
    3000    49.173388 -0.025408927    173.39236    316.13881          600          600          600 -0.077496989    20460.818 0.00014665257 
    4000    55.176167 -0.012850347    177.71915    324.02768          600          600          600 -0.066645536    20426.838 0.00014665257 
    5000    50.522855 -0.033559195    177.68725     323.9695          600          600          600 -0.050492386    19714.151 0.00014665257 
    6000    50.834011 -0.054094188    153.79265    280.40352          600          600          600 -0.081518875    20204.068 0.00014665257 
    7000    39.430996 -0.0030038249      179.524    327.31837          600          600          600 -0.014908433    20397.335 0.00014665257 
    8000    36.420762 -0.0074225548    161.16051    293.83703          600          600          600 -0.029741097    20239.654 0.00014665257 
    9000    42.976862 -0.023635412    153.32742    279.55528          600          600          600 -0.041632403    20599.898 0.00014665257 
   10000    42.450758  0.003167282    165.16718    301.14221          600          600          600  0.047883396    20317.795 0.00014665257 
   11000    39.387544 -0.033458615    189.03861    344.66596          600          600          600 -0.035674825    19602.849 0.00014665257 
   12000    46.609129 -0.032865972    164.72173    300.33003          600          600          600 -0.047398081    19704.797 0.00014665257 
   13000    38.589835 -0.012599924    175.78753    320.50584          600          600          600 0.0023057881    19900.476 0.00014665257 
   14000    53.559775 -0.049814409    163.31802    297.77072          600          600          600  -0.10553318    20042.452 0.00014665257 
   15000    44.217116 -0.0066107645    168.87097    307.89516          600          600          600 0.0089391614    19633.313 0.00014665257 
   16000    38.230499  -0.04907799    177.18114    323.04673          600          600          600 -0.045346047    19718.786 0.00014665257 
   17000    37.522643  0.016666776    173.64997    316.60851          600          600          600 -0.0034874497    19734.372 0.00014665257 
   18000    43.265646 0.0015217609    158.48579    288.96031          600          600          600 -0.039427203    19478.765 0.00014665257 
   19000    43.670926  0.011413939    155.23265      283.029          600          600          600 0.0094162605    19740.595 0.00014665257 
   20000    53.964223 -0.016354862    165.80863    302.31173          600          600          600 -0.035171234    19638.277 0.00014665257 
   21000    44.633267 0.0010035621     170.1333    310.19672          600          600          600  -0.00198227    19554.138 0.00014665257 
   22000    48.621752  0.026774465    154.93887    282.49337          600          600          600  0.044963568    19607.889 0.00014665257 
   23000    42.263247 -0.002397115     153.4437    279.76729          600          600          600  -0.01209141     19659.08 0.00014665257 
   24000    53.780115 -0.024029672    171.87011    313.36337          600          600          600 -0.015525963    19782.027 0.00014665257 
   25000    50.834112 -0.033302496    164.37998    299.70694          600          600          600 -0.049778125    19639.381 0.00014665257 
   26000    38.963353 -0.041886908    170.36004    310.61012          600          600          600 -0.039032373    19805.099 0.00014665257 
   27000     39.19793 -0.024441964    164.97278    300.78777          600          600          600 -0.049284823    19005.324 0.00014665257 
   28000    43.470646 -0.017186977    154.68093    282.02308          600          600          600 -0.047286427    20127.571 0.00014665257 
   29000    39.079021 -0.0063999434    152.89337    278.76389          600          600          600  0.016316892    19548.852 0.00014665257 
   30000    41.803183  0.021395043    175.55846    320.08818          600          600          600  0.030333879    20066.616 0.00014665257 
   31000    59.070065 -0.019422163    141.74965    258.44604          600          600          600 -0.0031207736    19834.507 0.00014665257 
   32000    58.367347 -0.044956866    165.23796    301.27127          600          600          600 -0.090326839    19478.403 0.00014665257 
   33000    45.539372  0.017055736    167.69801    305.75656          600          600          600  0.015208438    19716.468 0.00014665257 
   34000    52.465365 -0.010288908    166.20362    303.03191          600          600          600 -0.049520166    19900.099 0.00014665257 
   35000    44.680198 -0.039580122    164.05984    299.12324          600          600          600  -0.06582882    20276.149 0.00014665257 
   36000    55.363318  0.018915249    166.80835    304.13449          600          600          600  0.041741811    19602.483 0.00014665257 
   37000    52.370364 0.0031723952    181.93959    331.72262          600          600          600 -0.0013279231    19708.686 0.00014665257 
   38000    41.655533 0.0046405402    171.84501     313.3176          600          600          600  0.027613382    20022.838 0.00014665257 
   39000    63.464479 -0.010900004    152.56067    278.15731          600          600          600 -0.043527857     20128.44 0.00014665257 
   40000    45.426945  0.014620281    167.58905    305.55791          600          600          600  0.020331741     19964.89 0.00014665257 
   41000     40.66773  0.011569315    156.04383      284.508          600          600          600 0.0017207451    19409.178 0.00014665257 
   42000    41.610347  0.023538987    162.22331    295.77478          600          600          600  0.038795223     19617.06 0.00014665257 
   43000     44.44632  0.013945361    147.91802    269.69256          600          600          600  0.014562163    20037.282 0.00014665257 
   44000    41.069377 0.0049464561    162.68533    296.61715          600          600          600 -0.017465006    19580.977 0.00014665257 
   45000    45.230369 -0.038006107     181.5683    331.04567          600          600          600 -0.078906301    19341.246 0.00014665257 
   46000    47.330219 -0.030003329    164.06364    299.13017          600          600          600 -0.049556031    19052.634 0.00014665257 
   47000    35.407127 -0.010521007    165.24578    301.28551          600          600          600 0.0026007299    17962.066 0.00014665257 
   48000    42.176263 -0.0074381428    165.84178    302.37217          600          600          600  0.019362187    16968.691 0.00014665257 
   49000    54.728235 5.7542833e-05     168.3015    306.85687          600          600          600  0.019352101    18682.536 0.00014665257 
   50000    52.940123 -0.017401424    144.20259    262.91836          600          600          600 -0.047120574    18376.565 0.00014665257 
   51000    39.495838 0.0027057058    142.75631    260.28143          600          600          600 -0.011851886    18105.509 0.00014665257 
   52000    45.488351 -0.0084982266    167.97122     306.2547          600          600          600 0.0054897756     18420.55 0.00014665257 
   53000    40.492173 -0.014767445    159.49543    290.80115          600          600          600 -0.046167948    18583.618 0.00014665257 
   54000    47.203943  0.020463565    158.50094    288.98794          600          600          600  0.010803162    18754.294 0.00014665257 
   55000    45.569543 -0.034566595    145.58949    265.44705          600          600          600  -0.04507002    17780.008 0.00014665257 
   56000    45.223785  0.028109754    157.08583    286.40783          600          600          600  0.027512394    16963.818 0.00014665257 
   57000    41.061897  0.033735952    167.13949    304.73823          600          600          600  0.031367393    16962.377 0.00014665257 
   58000    59.313098 -0.044853066    151.29647    275.85233          600          600          600 -0.075885699    17230.092 0.00014665257 
   59000    52.248527 -0.0095872795    169.14226     308.3898          600          600          600 -0.039210729    18056.093 0.00014665257 
   60000    44.099479 0.0088875504    180.22319    328.59318          600          600          600 0.0095913918    18522.969 0.00014665257 
   61000    52.046595 -0.025546204    169.97145    309.90163          600          600          600 -0.049546534    17721.413 0.00014665257 
   62000    44.244506 -0.0017733926    167.95521    306.22551          600          600          600 -0.0083070469    17773.303 0.00014665257 
   63000    56.760353 -0.00079753419     179.2666    326.84908          600          600          600 0.0076520796    17108.086 0.00014665257 
   64000    37.418081  0.033640264    166.47239    303.52195          600          600          600 0.0083253561    17644.774 0.00014665257 
   65000    40.309401 -0.00036688799    174.83829    318.77513          600          600          600 -0.022123449    17415.819 0.00014665257 
   66000    48.141033 -0.018226361    152.59363     278.2174          600          600          600 -0.017487186    17105.435 0.00014665257 
   67000    37.861896 -0.00010151269     164.5633    300.04118          600          600          600 -0.016394619    16876.517 0.00014665257 
   68000    40.606148 -0.019345925    158.94159    289.79135          600          600          600 -0.027476998    16549.168 0.00014665257 
   69000    39.588428 -0.0017176776    157.46316     287.0958          600          600          600  0.032280868    16296.407 0.00014665257 
   70000    48.776952 -0.010196186    173.57587     316.4734          600          600          600 0.0072462236    16850.076 0.00014665257 
   71000    49.836059 -0.0038162566    168.90363    307.95471          600          600          600  0.002509811    16214.006 0.00014665257 
   72000    45.168898 -0.038676189    170.79982    311.41196          600          600          600 -0.043989088    16191.223 0.00014665257 
   73000    39.231834  0.013890883    166.55451    303.67167          600          600          600  0.027187017     16689.43 0.00014665257 
   74000    51.310325  0.011257397    158.47145    288.93416          600          600          600 -0.016234462    16997.848 0.00014665257 
   75000    51.255045 -0.019158029    173.02087     315.4615          600          600          600 -0.0023621297    17157.705 0.00014665257 
   76000    52.885785 -0.0080503059     158.6424    289.24586          600          600          600  0.011463766    17180.054 0.00014665257 
   77000    48.915174 -0.019270185    183.75829    335.03857          600          600          600 -0.011936061    17221.461 0.00014665257 
   78000    48.685828 -0.0012879781     164.0341    299.07632          600          600          600 0.0067976055    17252.133 0.00014665257 
   79000     42.73143 -0.0049587046    160.44967    292.54098          600          600          600  0.026968895    16327.301 0.00014665257 
   80000    52.373371 -0.0015432947    158.49456     288.9763          600          600          600  -0.03263132    16778.558 0.00014665257 
   81000    44.316378 -0.0016429171    158.12554    288.30349          600          600          600 -0.018282796    17223.512 0.00014665257 
   82000    35.252579 -0.0053799789    168.98827    308.10903          600          600          600 -0.0098657203    17776.843 0.00014665257 
   83000    41.370146 0.0086881057    144.45574    263.37993          600          600          600   0.02255535    17451.108 0.00014665257 
   84000    45.365626 0.0020766253    175.80475    320.53722          600          600          600  0.012251102     17526.29 0.00014665257 
   85000    37.669782 -0.0027684174     153.6227    280.09365          600          600          600 -0.012061624    17444.721 0.00014665257 
   86000    38.265276 -0.0080530832     169.2701    308.62288          600          600          600 -0.012736261    16699.264 0.00014665257 
   87000    49.826466 0.0031181603    160.59248    292.80135          600          600          600 0.0023663513    16414.392 0.00014665257 
   88000    41.072686 -0.010264537     184.8199    336.97416          600          600          600 0.0059323564    17176.536 0.00014665257 
   89000    34.607068 0.0073048323    183.05923    333.76401          600          600          600 -0.0097209309    17668.187 0.00014665257 
   90000    39.343935 0.0031872036    150.05879    273.59574          600          600          600 -0.00021492231    17724.783 0.00014665257 
   91000    54.252379 -0.019590597     162.7273    296.69367          600          600          600 -0.010975873    17680.029 0.00014665257 
   92000    46.940542  0.026743836    157.07571    286.38938          600          600          600  0.029855124    17856.232 0.00014665257 
   93000    54.595335 -0.0075475398    169.79359    309.57734          600          600          600 -0.052990093    18793.453 0.00014665257 
   94000    52.531891 -0.0073494162    174.58705    318.31705          600          600          600 -0.021171187    17470.007 0.00014665257 
   95000    47.273949  0.016519398    166.81146    304.14015          600          600          600  0.015831702     17144.38 0.00014665257 
   96000    48.489432  0.015398893    160.91409    293.38772          600          600          600  0.026840856    17443.487 0.00014665257 
   97000     45.35656  0.023601326    161.14403    293.80697          600          600          600 -0.0059901401    17503.689 0.00014665257 
   98000     34.86991  0.017210964     169.6935    309.39485          600          600          600  0.022393836    17431.019 0.00014665257 
   99000    40.978937  0.021103907    149.36519    272.33112          600          600          600   0.03902987     17297.74 0.00014665257 
  100000    36.277384  0.020733394    161.48449    294.42772          600          600          600  0.011900743     17038.38 0.00014665257 
  101000    50.973092 -0.037510748    146.54538    267.18988          600          600          600 -0.058870093    17627.051 0.00014665257 
  102000    47.574078 -0.018202524    167.77775    305.90194          600          600          600 0.0023409891    17289.326 0.00014665257 
  103000    39.197219  0.036291604    165.08188    300.98668          600          600          600  0.044672113    17170.348 0.00014665257 
  104000    49.424197 -0.038135515    159.07144    290.02812          600          600          600 -0.059640095    16565.901 0.00014665257 
  105000    39.837913 -0.010924427    175.53319    320.04211          600          600          600 -0.023695564    15920.502 0.00014665257 
  106000    47.899529  0.021295833    160.73862    293.06781          600          600          600 0.0016139894      16297.8 0.00014665257 
  107000    39.295103  0.034575272    162.44543    296.17976          600          600          600  0.065465543    16794.615 0.00014665257 
  108000    50.549066 -0.031898386    188.33629    343.38544          600          600          600 -0.078196063    16468.465 0.00014665257 
  109000    49.960373  0.012018178    161.53867     294.5265          600          600          600 -0.0027154454    15521.237 0.00014665257 
  110000    38.627281   0.02085197    145.37257    265.05154          600          600          600  0.026464241    15579.698 0.00014665257 
  111000    28.653743  0.030216847     171.1084    311.97458          600          600          600  0.035528857     15606.48 0.00014665257 
  112000    46.522478 0.0011501356    153.09395    279.12961          600          600          600 -0.0014648434    15395.049 0.00014665257 
  113000    34.121183    0.0199612       155.29    283.13357          600          600          600  0.039407526    15623.048 0.00014665257 
  114000    45.826467  0.028704194    165.73818    302.18329          600          600          600 -0.046338365    15881.079 0.00014665257 
  115000    58.781179  0.026634324    170.18707    310.29477          600          600          600  0.036514854    15109.382 0.00014665257 
  116000    47.545498 -0.023512672    163.05296    297.28744          600          600          600 -0.020575843    15750.001 0.00014665257 
  117000    39.356492 -0.017470782    165.75468    302.21337          600          600          600 -0.037353866    15618.161 0.00014665257 
  118000    44.231221 -0.023900724    167.72098    305.79843          600          600          600 -0.037084406    15845.082 0.00014665257 
  119000    46.251578  0.020376452    159.99584    291.71353          600          600          600  0.043589051    15535.668 0.00014665257 
  120000    50.157389 -0.0049501345    172.42371    314.37272          600          600          600 0.0093021072    15881.379 0.00014665257 
  121000    37.273837  0.018693999    152.89418    278.76537          600          600          600 0.0075858325    16681.398 0.00014665257 
  122000    45.851363 -0.044826473    171.51993     312.7249          600          600          600 -0.052007419    16221.657 0.00014665257 
  123000    35.879636 -0.0065236832     169.1295    308.36654          600          600          600 -0.012685448    15731.688 0.00014665257 
  124000    36.371899 -0.029583432    156.21826    284.82603          600          600          600 -0.054105386    15199.838 0.00014665257 
  125000    40.628704 -0.0081162281    155.90259    284.25048          600          600          600   0.02004586     15057.31 0.00014665257 
  126000    34.123696  0.017751281    171.51016     312.7071          600          600          600 -0.0012347572    15514.463 0.00014665257 
  127000    39.757699 0.0093348343    145.39531    265.09301          600          600          600  0.014836513    15795.792 0.00014665257 
  128000    42.218944 -0.010870333    157.00593    286.26215          600          600          600 -0.025263825    15263.448 0.00014665257 
  129000     44.76702  0.007246178    152.42727    277.91408          600          600          600 -0.0010686061     15170.59 0.00014665257 
  130000    43.300977 -0.010176544    170.33428    310.56317          600          600          600 -0.024394011    14901.583 0.00014665257 
  131000    49.521317  0.010898858    162.99036     297.1733          600          600          600 0.0026916088    14661.246 0.00014665257 
  132000    42.714406 -0.015973848    174.00695    317.25938          600          600          600  0.016899662    14957.061 0.00014665257 
  133000    39.991779  0.017436529    156.90302    286.07452          600          600          600 -0.022218451    15155.406 0.00014665257 
  134000    44.193648 0.0040774053     152.1654    277.43662          600          600          600   0.01959229    14972.759 0.00014665257 
  135000    43.211244 -0.0092259973    165.10407    301.02714          600          600          600  0.014484671    15598.935 0.00014665257 
  136000    41.842406 -0.016264553    168.93375    308.00962          600          600          600  -0.01106132    15505.057 0.00014665257 
  137000      39.7034 -0.026121657    171.08344    311.92907          600          600          600 -0.025097718    15337.682 0.00014665257 
  138000    51.336201 0.0036706964    168.11478    306.51644          600          600          600 -0.0096440742    15230.636 0.00014665257 
  139000    32.342595 -0.012046358    172.18677    313.94073          600          600          600 -0.022825071     14518.89 0.00014665257 
  140000    39.453371 -0.023226194    162.87508    296.96312          600          600          600 -0.050430263    14135.848 0.00014665257 
  141000     50.43726  0.020962959     174.9448    318.96931          600          600          600  0.028843804    14286.555 0.00014665257 
  142000    40.117596 -0.022363892    170.51516    310.89295          600          600          600 -0.037313047    14314.933 0.00014665257 
  143000    43.791486 -0.010085698     160.8303    293.23495          600          600          600 -0.026251008    14159.087 0.00014665257 
  144000    49.990799  0.015460803    177.27308    323.21437          600          600          600   0.02627415    14189.024 0.00014665257 
  145000    40.654557 -0.0029113691    170.35422    310.59951          600          600          600 -0.0054312904    14541.037 0.00014665257 
  146000    45.084362 -0.022124213    165.62128    301.97014          600          600          600 -0.024264465    14486.045 0.00014665257 
  147000    40.873176  0.012285308    173.29374    315.95901          600          600          600 -0.0020390888    14731.846 0.00014665257 
  148000    45.116208 -0.013655025      161.811    295.02302          600          600          600 -0.040229531    14063.708 0.00014665257 
  149000     39.66774 -0.0086713313    170.81803    311.44517          600          600          600 -0.00085254969    14714.791 0.00014665257 
  150000    38.416469 0.0070441664    157.85041    287.80185          600          600          600 0.0020380375    15619.382 0.00014665257 
  151000    43.352716 -0.013424742    169.60873    309.24029          600          600          600 -0.032497654     15862.16 0.00014665257 
  152000     37.83912  0.022846987    158.60826     289.1836          600          600          600   0.03427847     15465.78 0.00014665257 
  153000    45.094922 0.00049064699    165.22324    301.24442          600          600          600   0.02799995    15125.128 0.00014665257 
  154000    48.467386  -0.02508932    155.76776    284.00464          600          600          600  -0.01324515    15016.609 0.00014665257 
  155000    43.017269 0.0092922567    164.73376    300.35197          600          600          600  0.021233948    15884.386 0.00014665257 
  156000    47.476515 -0.018125373    167.23009    304.90341          600          600          600 -0.0020900298    15755.681 0.00014665257 
  157000    36.424754   0.01930905    151.36848    275.98363          600          600          600  0.017203418     15332.02 0.00014665257 
  158000     50.81002 -0.026579847    149.70483    272.95037          600          600          600  -0.02275484    14825.787 0.00014665257 
  159000    38.303351 -0.0072411723    150.26473    273.97121          600          600          600 -0.026782094    14649.878 0.00014665257 
  160000    44.569044  0.010641183    140.31988     255.8392          600          600          600 -0.0036382894    14675.045 0.00014665257 
  161000    46.084237 -0.028496048    170.10609     310.1471          600          600          600 -0.026164373    14506.386 0.00014665257 
  162000    36.946754 0.0086001788    158.13974    288.32938          600          600          600  0.018016776    15012.309 0.00014665257 
  163000    44.081612 0.0088179341    160.51906    292.66749          600          600          600 -0.014920149    15153.818 0.00014665257 
  164000    53.622683 -0.022128234    156.04214    284.50492          600          600          600 -0.0025964092    15591.629 0.00014665257 
  165000    45.944688 -0.040821974    158.06749    288.19766          600          600          600 -0.047798489    15793.294 0.00014665257 
  166000    46.479253  0.024603583    166.53937    303.64406          600          600          600  0.023986316     15411.17 0.00014665257 
  167000    44.523402 0.0062623431     181.0935    330.17998          600          600          600 -0.0084738298    15228.148 0.00014665257 
  168000    42.919205 -0.016255857    164.92225    300.69565          600          600          600  0.013373094    14655.457 0.00014665257 
  169000    35.490806 0.0082719996    176.42934    321.67603          600          600          600 -0.0029771784     15308.74 0.00014665257 
  170000     38.65832  0.015028738    173.15612     315.7081          600          600          600  0.032160586    15737.886 0.00014665257 
  171000    52.327514 -0.017343719    161.47902    294.41774          600          600          600 -0.015827645    15594.063 0.00014665257 
  172000    45.650773  0.025690736    176.70682    322.18193          600          600          600  0.025766863      15463.1 0.00014665257 
  173000     54.52697 0.0045995371    186.50497    340.04647          600          600          600  0.027913711    15107.586 0.00014665257 
  174000    34.992053  0.019441229    161.81547    295.03118          600          600          600  0.030220132    14782.834 0.00014665257 
  175000    39.392993 -0.008933271    162.47332     296.2306          600          600          600 -0.036172582    14906.456 0.00014665257 
  176000    35.393644   0.01130317    171.65673    312.97433          600          600          600  0.035698826     15239.49 0.00014665257 
  177000    40.466835  0.011633568    177.81345    324.19961          600          600          600  0.012996068    15325.913 0.00014665257 
  178000    44.089397  0.027949857    166.43354    303.45111          600          600          600  0.033093003    14678.692 0.00014665257 
  179000    36.049998  0.010547459    181.64563    331.18666          600          600          600  0.033175453    15236.446 0.00014665257 
  180000    38.562606 -0.0038621985     170.6649    311.16596          600          600          600 -0.0017380284    15067.263 0.00014665257 
  181000    30.474919 0.0059139641    159.49859    290.80692          600          600          600 -0.0075603933    14805.429 0.00014665257 
  182000    41.039737  0.015423784    167.98976     306.2885          600          600          600  0.025766146    14763.166 0.00014665257 
  183000    43.387748 0.0053827898    167.07956    304.62896          600          600          600  0.013553069    14338.373 0.00014665257 
  184000    53.523197 -0.015373296    175.03383    319.13164          600          600          600 -0.00071583335    14638.936 0.00014665257 
  185000    39.956351 -0.014902536    154.45768    281.61605          600          600          600 -0.00024054524    14891.584 0.00014665257 
  186000    45.831495 -0.035442619    155.43263    283.39363          600          600          600 -0.075532082    14946.987 0.00014665257 
  187000    51.470226  0.027682993    180.48594    329.07225          600          600          600  0.007136521    14586.397 0.00014665257 
  188000     53.07807 -0.0084782703    185.31817    337.88265          600          600          600 -0.043612376    13838.568 0.00014665257 
  189000    49.723754 0.0065196084    176.92872    322.58651          600          600          600 0.0015155572    14311.026 0.00014665257 
  190000     45.83737 -0.038463757      173.189    315.76804          600          600          600 -0.047586091     14117.15 0.00014665257 
  191000    47.501982  0.033631412    195.86358    357.10963          600          600          600 -0.0079968853    13693.719 0.00014665257 
  192000     34.79019 -0.0013065912    152.90327    278.78195          600          600          600 -0.00014687999    14003.279 0.00014665257 
  193000    35.775408 -0.0026118442    139.57673    254.48424          600          600          600 0.0016923693    13867.301 0.00014665257 
  194000    46.937983 0.0089607039    158.86957    289.66004          600          600          600  0.020988714    13661.961 0.00014665257 
  195000    41.098012 -0.016240389    168.57135    307.34889          600          600          600 -0.023402858    13837.199 0.00014665257 
  196000    40.925523 0.0099518365    188.23408     343.1991          600          600          600  0.014289981    13836.605 0.00014665257 
  197000    45.088299  0.012013452    174.07245     317.3788          600          600          600  0.023012983    14421.891 0.00014665257 
  198000    32.166816 -0.014180727    165.28992      301.366          600          600          600 0.00039260233    14407.969 0.00014665257 
  199000    47.258845  0.013155085     174.6926     318.5095          600          600          600 0.0041639657    14534.487 0.00014665257 
  200000    48.444987  0.013491022    163.32468    297.78285          600          600          600 -0.0060164846    14102.151 0.00014665257 
  201000    35.403666 -0.015337381    151.31444     275.8851          600          600          600 0.0034787573    13497.097 0.00014665257 
  202000    35.579088  0.023614996     183.3448    334.28467          600          600          600  0.043644829    13302.835 0.00014665257 
  203000     41.22792 -0.021858884      144.484    263.43145          600          600          600 -0.0065914589    13810.636 0.00014665257 
  204000    40.635934 -0.0029478174    160.26378    292.20204          600          600          600 -0.013056854    14520.549 0.00014665257 
  205000    67.985088 -0.013431242    182.63497    332.99048          600          600          600  0.037203351    14296.099 0.00014665257 
  206000    50.194984 -0.014369894    154.14193    281.04034          600          600          600 -0.024636064    13825.932 0.00014665257 
  207000    53.636592 0.0072301952    162.69421    296.63335          600          600          600  0.030386108    13444.446 0.00014665257 
  208000    49.369444 -0.019936653    157.87424    287.84531          600          600          600 0.0080343892    13614.555 0.00014665257 
  209000    38.168011  -0.03657443    174.48077    318.12328          600          600          600 -0.017002831     14223.91 0.00014665257 
  210000    41.541248  0.019420632    181.58601    331.07794          600          600          600  0.024772437    13851.365 0.00014665257 
  211000    31.681518  0.013722201    158.39181    288.78897          600          600          600  0.013759915    13933.593 0.00014665257 
  212000    31.069663 -0.0033766567    161.19116    293.89291          600          600          600 -0.010027476    14370.108 0.00014665257 
  213000    41.418883  0.014512695    180.34441     328.8142          600          600          600  0.030344641    15457.629 0.00014665257 
  214000    46.871559 -0.019539502    149.66852    272.88416          600          600          600 -0.015925805    15958.907 0.00014665257 
  215000    42.893099  -0.02445847    156.14222    284.68739          600          600          600 -0.038953787    16444.124 0.00014665257 
  216000    50.199049  0.010947015     156.7791    285.84857          600          600          600 -0.0046144651    15667.342 0.00014665257 
  217000    44.908381 -0.018920062    161.27159    294.03954          600          600          600 -0.011240466    15412.133 0.00014665257 
  218000    48.586139  -0.02075579    169.08584    308.28693          600          600          600 0.0081392568    15291.885 0.00014665257 
  219000    36.341959  0.021069748    160.14273    291.98134          600          600          600  0.038363097    13918.104 0.00014665257 
  220000    42.606964 -9.756802e-07    162.50992    296.29734          600          600          600  0.016373081    14228.784 0.00014665257 
  221000     53.45227  0.049962909    157.59718    287.34016          600          600          600  0.097616054    15035.342 0.00014665257 
  222000    50.392111 -0.019027368    158.39563    288.79593          600          600          600 -0.029982995    14914.248 0.00014665257 
  223000    38.432596 -0.016035117    163.03131    297.24797          600          600          600 -0.018375956     14461.92 0.00014665257 
  224000    53.548548 0.00077860982    150.05295    273.58507          600          600          600 -0.014210292    14017.974 0.00014665257 
  225000    39.609466  0.013480991    185.98951    339.10666          600          600          600 0.0099540026    14164.108 0.00014665257 
  226000    46.169511 -0.0036144073    167.96973    306.25197          600          600          600 -0.040507077    13793.876 0.00014665257 
  227000     47.59479 -0.017887803     156.3552    285.07571          600          600          600 -0.041056837    14032.935 0.00014665257 
  228000    45.314357 -0.0085916023    152.36358    277.79796          600          600          600  0.011550667    14393.433 0.00014665257 
  229000    39.336218  0.006646101    163.52781    298.15321          600          600          600 -0.0031948137    14539.122 0.00014665257 
  230000     47.27758 -0.0050007544    163.49939     298.1014          600          600          600 0.0019344306     13912.84 0.00014665257 
  231000    40.679752 -0.010823842    159.62686    291.04077          600          600          600 0.0036677475     13548.85 0.00014665257 
  232000    47.194133   0.03453982    190.85316    347.97435          600          600          600  0.025139503    13471.477 0.00014665257 
  233000    48.524218 -0.0080194977      187.577    342.00106          600          600          600  0.011746087    14530.207 0.00014665257 
  234000    41.187789  0.034059716     167.5363    305.46172          600          600          600  0.031059723    14086.711 0.00014665257 
  235000    44.851938 -0.040055192    160.48644    292.60801          600          600          600 -0.046682655    13022.351 0.00014665257 
  236000    43.158337 0.0044721541    179.04346    326.44222          600          600          600  0.022331475    13020.168 0.00014665257 
  237000    46.524174 -0.019332287    172.93667    315.30799          600          600          600 -0.013993559    13119.212 0.00014665257 
  238000    35.530698 0.0037382266    161.62486    294.68364          600          600          600 0.00011798724    12976.743 0.00014665257 
  239000    38.581896 -0.015928776    150.09525     273.6622          600          600          600 -0.048977696    13849.444 0.00014665257 
  240000    33.799366 -0.00078224336    151.73075    276.64415          600          600          600 -0.013927912    14109.551 0.00014665257 
  241000    60.871158  0.018069457    150.44369    274.29749          600          600          600 -0.00036531726     13818.28 0.00014665257 
  242000    47.048864  0.017295587     168.6555    307.50231          600          600          600  0.021547872     13669.04 0.00014665257 
  243000    44.602236 -0.035071324    165.20054    301.20303          600          600          600 -0.030711892     13518.98 0.00014665257 
  244000    41.563972 0.0058592896    165.74151    302.18935          600          600          600 -0.012465378    13441.774 0.00014665257 
  245000      35.7346 0.0013958361    148.35453    270.48842          600          600          600  0.022583292    13271.056 0.00014665257 
  246000    32.611021 -0.0034727071    160.38252    292.41855          600          600          600 -0.0076086809    13746.048 0.00014665257 
  247000    29.009591 0.0050093667      162.211    295.75234          600          600          600   0.02753683     13417.78 0.00014665257 
  248000    38.699902 -0.0053385403    165.27597    301.34055          600          600          600 -0.016497336    13373.457 0.00014665257 
  249000    32.924328  -0.00281867    143.27979    261.23587          600          600          600 -0.0096859396    14095.848 0.00014665257 
  250000    40.581082 -0.019830334    155.50808    283.53119          600          600          600 -0.043136517     13684.56 0.00014665257 
  251000    41.117172 -0.0063693723    159.29789    290.44099          600          600          600 -0.012883928    14176.364 0.00014665257 
  252000    37.004128   0.02205985    161.87012    295.13082          600          600          600 0.0085389912    14681.055 0.00014665257 
  253000    45.106189 -0.020752169    177.44885    323.53484          600          600          600 0.0052532239    15035.988 0.00014665257 
  254000    52.474041 -0.012221059    163.18182    297.52239          600          600          600 -0.013827432    15875.068 0.00014665257 
  255000    43.601693 -0.0080411337    173.15741    315.71044          600          600          600  0.028583608    16019.983 0.00014665257 
  256000    46.664545 -0.0050756528    157.78262    287.67826          600          600          600  0.014242357    16194.849 0.00014665257 
  257000    40.058457 -0.0095742156      155.241    283.04423          600          600          600 -0.00069950158    16601.374 0.00014665257 
  258000    35.891008  0.019440634    163.72783     298.5179          600          600          600  0.035040256    16371.977 0.00014665257 
  259000    41.487655 -0.0078363555    164.33497    299.62487          600          600          600 0.0061508259    16233.209 0.00014665257 
  260000    52.358904 -0.020911803    180.34762    328.82004          600          600          600   -0.0228199    15839.576 0.00014665257 
  261000    49.618559  0.036535963    177.59764    323.80613          600          600          600  0.055319085    15725.259 0.00014665257 
  262000    46.486315  0.021864914    158.92153    289.75478          600          600          600 -0.0050789741    15349.919 0.00014665257 
  263000      36.3019  0.030474409    171.67125     313.0008          600          600          600  0.024884969    14934.268 0.00014665257 
  264000    50.685456  0.012993144    172.53981     314.5844          600          600          600 -0.0060205535    15082.759 0.00014665257 
  265000    52.237439  0.013955182    149.74661    273.02654          600          600          600  0.008159868    15303.155 0.00014665257 
  266000    42.860712 -0.029841856    179.53655    327.34126          600          600          600 -0.023175241    14691.803 0.00014665257 
  267000    41.542041  0.016479201    150.49546     274.3919          600          600          600  0.023654026    15186.959 0.00014665257 
  268000    40.006616  -0.02277105    163.47197    298.05141          600          600          600 -0.012975718    15088.401 0.00014665257 
  269000    43.624614  0.017275159    158.64552    289.25155          600          600          600  0.018344881    14819.867 0.00014665257 
  270000    43.910685 -0.001019515      169.525    309.08763          600          600          600 -0.010357071    15208.656 0.00014665257 
  271000    36.521317 -0.015867453    154.96157    282.53476          600          600          600 0.0096685186    14065.123 0.00014665257 
  272000    45.551986 -0.022441706    167.64872     305.6667          600          600          600 0.00046050042    13931.649 0.00014665257 
  273000    36.957947  0.023008833    167.48447    305.36722          600          600          600 -9.649956e-05    13761.969 0.00014665257 
  274000    47.688829 -0.031957106    167.12972    304.72043          600          600          600 -0.041336296     14393.68 0.00014665257 
  275000    45.163109 -0.023981761    182.56016    332.85408          600          600          600 -0.070863887    14715.617 0.00014665257 
  276000    37.305368 -0.018217895    171.69265    313.03981          600          600          600 -0.0076534139    14338.128 0.00014665257 
  277000    41.644558  -0.01541224    185.57254    338.34643          600          600          600 -0.049792226    13951.668 0.00014665257 
  278000    45.898041 -0.034121876     162.7541    296.74254          600          600          600 -0.055697244    13846.975 0.00014665257 
  279000    38.005629  0.029168471    151.70783    276.60236          600          600          600    0.0213883    14425.214 0.00014665257 
  280000    39.100144 0.0043933745    159.05413    289.99654          600          600          600 0.0039260378    14511.054 0.00014665257 
  281000    50.901284 -0.040269889    162.02321    295.40993          600          600          600 -0.043470935      14766.7 0.00014665257 
  282000    51.462639 -0.010013761    155.12631    282.83512          600          600          600 -0.026523522    15266.504 0.00014665257 
  283000    41.446523 -0.012602241    159.44078    290.70151          600          600          600 -0.018162291    14939.853 0.00014665257 
  284000    48.956767  0.037140755    177.12321    322.94113          600          600          600    0.0267671    15260.616 0.00014665257 
  285000    50.305699  0.022765652    176.96044    322.64435          600          600          600 0.0079884406    15443.798 0.00014665257 
  286000    42.248714  0.021230093    172.79798    315.05512          600          600          600  0.037441936    14711.075 0.00014665257 
  287000    40.698761 -0.018173291    158.44764    288.89076          600          600          600 0.0020156671    15012.094 0.00014665257 
  288000    42.710684  0.019086361    160.15353    292.00104          600          600          600  0.039343374    14382.279 0.00014665257 
  289000    44.015185 -0.033502071    163.72201    298.50729          600          600          600 -0.011711973    14777.834 0.00014665257 
  290000    40.171807 -0.011428474    157.41537    287.00867          600          600          600 -0.013405086    15045.049 0.00014665257 
  291000    53.976109 0.0097424305    184.09493    335.65236          600          600          600  0.024097016    14160.091 0.00014665257 
  292000    39.924235 -0.020651169    172.24725    314.05099          600          600          600 -0.027098215    13580.128 0.00014665257 
  293000    38.654437  0.021845151    166.82603    304.16671          600          600          600  0.060125474    13489.067 0.00014665257 
  294000    42.115859 -0.0019331604    165.86805    302.42008          600          600          600 -0.00072454096    13927.393 0.00014665257 
  295000    39.694352 -0.0098877919    160.65125    292.90851          600          600          600 -0.029481957    13846.015 0.00014665257 
  296000    33.766568 -0.0022168383    167.94367    306.20446          600          600          600 -0.017381869    14317.425 0.00014665257 
  297000    47.622696 -0.051042408    180.41323    328.93968          600          600          600 -0.085855817    14303.071 0.00014665257 
  298000    47.223671 0.0016267492    162.63453    296.52453          600          600          600 -0.0045404656    14046.329 0.00014665257 
  299000     46.26062 -0.0086453218    157.31777    286.83071          600          600          600 -0.036490891    14035.283 0.00014665257 
  300000    43.561883 -0.040890371    164.25077    299.47135          600          600          600 -0.038126308    13829.169 0.00014665257 
  301000    38.149297   0.02624933    169.52253    309.08312          600          600          600  0.012292018    14771.901 0.00014665257 
  302000    45.027385  0.038478764    176.83884    322.42264          600          600          600  0.031655901    13901.266 0.00014665257 
  303000    42.695167  0.038439524    165.11868    301.05378          600          600          600  0.013216229    14114.109 0.00014665257 
  304000    37.642981 0.0041125336    172.58258    314.66238          600          600          600 0.0091822875    13703.696 0.00014665257 
  305000    49.394893 0.0028994602    173.84496    316.96403          600          600          600 -0.022662394    13469.444 0.00014665257 
  306000    44.881634 -0.012735237    187.63335     342.1038          600          600          600 -0.045733635    13748.931 0.00014665257 
  307000    47.666964 -0.0007340925    168.68417    307.55459          600          600          600  0.030429191    13616.544 0.00014665257 
  308000    33.063389 -0.0043959914    158.39883    288.80176          600          600          600 0.0074092573    13337.098 0.00014665257 
  309000    40.954949 -0.0007973648    171.30836    312.33915          600          600          600  -0.01763126     13656.89 0.00014665257 
  310000    38.578442 -0.0005380912    156.74761    285.79117          600          600          600 -0.0024413628     14360.17 0.00014665257 
  311000    49.613759  0.016327666    163.72698    298.51634          600          600          600 0.0051294619    14002.671 0.00014665257 
  312000    41.085031 -0.010272107     160.5048     292.6415          600          600          600 0.0083502135     14659.35 0.00014665257 
  313000     41.25267  0.010731644    181.94098    331.72516          600          600          600  0.004338831     14730.76 0.00014665257 
  314000    50.614557 0.0020714454     165.2716    301.33259          600          600          600 -0.014094154    14719.335 0.00014665257 
  315000    45.436091  0.028268568    166.57586    303.71059          600          600          600   0.03201505    15322.834 0.00014665257 
  316000    42.104335 -0.016806238    166.87081    304.24836          600          600          600 -0.037356094     15401.21 0.00014665257 
  317000    57.264954 -0.0013636274     176.3334     321.5011          600          600          600 -0.052259629    15160.226 0.00014665257 
  318000     55.57192  -0.01286792    179.27199     326.8589          600          600          600 -0.014122974    15507.006 0.00014665257 
  319000    47.390937 0.0026010852    171.79315    313.22305          600          600          600 0.0027739212    15796.268 0.00014665257 
  320000    48.682432 0.0030719113    157.84333    287.78894          600          600          600 0.0019662135      15043.7 0.00014665257 
  321000     44.93431  0.031576486    158.19688    288.43355          600          600          600  0.023333691    14502.424 0.00014665257 
  322000    45.752766  0.024717787    158.35884    288.72884          600          600          600  0.019005098    14094.663 0.00014665257 
  323000    25.521951  0.013937345    175.61309    320.18778          600          600          600 0.0063399467    14623.267 0.00014665257 
  324000    34.625824 -0.017582757    153.51244    279.89262          600          600          600 -0.004596451    14802.973 0.00014665257 
  325000    45.057839 -0.014423882    172.28943     314.1279          600          600          600  0.010405649    14517.382 0.00014665257 
  326000    43.666145 -0.0013302394    164.90967     300.6727          600          600          600 -0.024297302    13951.854 0.00014665257 
  327000    43.236816 -0.022383936    173.34908    316.05991          600          600          600 -0.028525973    15560.624 0.00014665257 
  328000    43.427456 -0.0027157927    168.44679    307.12177          600          600          600 0.0056572203    15826.248 0.00014665257 
  329000    42.818311  0.040859829     179.3015     326.9127          600          600          600  0.047412125     15863.96 0.00014665257 
  330000    50.684445  -0.01051081    141.93822    258.78984          600          600          600 -0.020556459     15806.03 0.00014665257 
  331000    38.523028 -0.0077799965    152.75989    278.52053          600          600          600 -0.0021770436    15276.958 0.00014665257 
  332000    54.092317 -0.002239795    168.26657     306.7932          600          600          600 -0.025225342    14448.818 0.00014665257 
  333000    39.561823   0.03229972    164.48633    299.90084          600          600          600  0.029684827    14993.848 0.00014665257 
  334000    37.815745 -0.015663243    160.27558    292.22357          600          600          600 -0.001610794    15996.644 0.00014665257 
  335000    46.208439 0.0071700028    166.45719    303.49422          600          600          600 -0.0019350596    15404.265 0.00014665257 
  336000    39.568571  0.029060037    171.54828    312.77659          600          600          600  0.017543085     14971.85 0.00014665257 
  337000    46.504394 0.0083360771    168.57225    307.35053          600          600          600 0.0057283414    15157.761 0.00014665257 
  338000    44.831733 -0.035711699    167.77944    305.90503          600          600          600 -0.0053074121    15007.313 0.00014665257 
  339000     49.98632 -0.0057882171    170.92896    311.64742          600          600          600 -0.022185441    14989.829 0.00014665257 
  340000    39.484542  0.014169465     172.6717    314.82488          600          600          600  0.047965681    14802.555 0.00014665257 
  341000    50.940966 -0.016759332    156.00274    284.43309          600          600          600 -0.017564017     15450.91 0.00014665257 
  342000     46.58852 -0.018115973     167.7781    305.90258          600          600          600 0.0023048251      15813.3 0.00014665257 
  343000    31.955089 0.0067426552    158.87426     289.6686          600          600          600 -0.0014232936    15851.369 0.00014665257 
  344000    45.868197 -0.016793691    156.64381    285.60192          600          600          600  0.018250298    16336.904 0.00014665257 
  345000    47.392243 0.0037263947    149.04519    271.74767          600          600          600 -0.023575013    16059.916 0.00014665257 
  346000    49.595868 -0.027669397    161.71976    294.85668          600          600          600 -0.045423148    15969.297 0.00014665257 
  347000    51.063445  0.039175998    167.66947    305.70452          600          600          600   0.07372103    15385.561 0.00014665257 
  348000    48.921437 -0.0047558098    163.36128    297.84959          600          600          600  0.015065744    15180.968 0.00014665257 
  349000    32.929595 -0.0074706402    160.20871    292.10165          600          600          600 -0.0034791862    15363.357 0.00014665257 
  350000    49.576731 -0.0090578833    162.04641    295.45224          600          600          600 -0.0012379669    16011.544 0.00014665257 
  351000    49.800171 -0.020409396    154.32803    281.37965          600          600          600 -0.003044842    15976.475 0.00014665257 
  352000    39.428796  0.012016669    187.97595    342.72845          600          600          600   0.01686913    15898.717 0.00014665257 
  353000     32.46742 -0.025076751    171.51455     312.7151          600          600          600 -0.012075772    15358.631 0.00014665257 
  354000    48.510345 0.0040816026    170.66898    311.17341          600          600          600 -0.011693623    15192.295 0.00014665257 
  355000    37.822007  0.027087708    163.35027    297.82951          600          600          600  0.015962197    15797.517 0.00014665257 
  356000     43.38767 -0.012784596    157.13751    286.50206          600          600          600 -0.010273493    15452.333 0.00014665257 
  357000    43.955746  0.012323391    162.75081    296.73654          600          600          600  0.041021925    16193.849 0.00014665257 
  358000    46.966652 -0.0086912427    169.85261    309.68495          600          600          600 -0.010611959     16283.69 0.00014665257 
  359000    48.789922   0.02431396     171.0213    311.81578          600          600          600  0.043493507    15677.941 0.00014665257 
  360000    38.883994 -0.0034677223    170.95974    311.70353          600          600          600 -0.0020311665        15405 0.00014665257 
  361000    41.431596 -0.0083945171     140.2945    255.79292          600          600          600 -0.0048764679    14910.218 0.00014665257 
  362000    37.250693  0.014979372    170.47202    310.81429          600          600          600  0.026593166    14988.008 0.00014665257 
  363000    44.071533 -0.018261862    152.04866    277.22378          600          600          600 -0.032521573    14956.848 0.00014665257 
  364000    41.220413 0.0077832867    164.92436    300.69948          600          600          600 0.0059601698    15093.886 0.00014665257 
  365000    43.608182  0.023626906    160.07444    291.85683          600          600          600  0.031570643    15030.816 0.00014665257 
  366000    39.425352 -0.0045597057    177.27899    323.22515          600          600          600 -0.0041349027    14002.858 0.00014665257 
  367000    47.946613 -0.0015892637    157.83455    287.77295          600          600          600 3.8704246e-05    15241.152 0.00014665257 
  368000    56.206937  0.022843015    177.75904     324.1004          600          600          600  0.019456906     15201.27 0.00014665257 
  369000    38.353378   -0.0197845    171.50892    312.70482          600          600          600 0.00047799507    14450.411 0.00014665257 
  370000    41.911778  0.011970138    158.83223    289.59196          600          600          600  0.045377224    14096.653 0.00014665257 
  371000    44.423171 0.0037049849    178.21217    324.92657          600          600          600 -0.0062653612    14207.962 0.00014665257 
  372000     36.92142 -0.022025065     161.3982     294.2704          600          600          600 -0.025897285    13976.448 0.00014665257 
  373000    46.543797  0.011110151    171.48869    312.66795          600          600          600  0.015259747    13411.816 0.00014665257 
  374000       41.063  0.011445616    163.51891    298.13698          600          600          600 0.0048207725    13563.002 0.00014665257 
  375000    40.520783  0.034608327    164.49449    299.91573          600          600          600  0.039004154    13727.602 0.00014665257 
  376000    35.581319  0.013643539    172.77392    315.01125          600          600          600  0.029116313    13648.135 0.00014665257 
  377000    38.814961 -0.00051442552    173.70672    316.71198          600          600          600 -0.044345138    14167.314 0.00014665257 
  378000     43.26975 -0.024051435     160.3022    292.27209          600          600          600 -0.027460235    13248.922 0.00014665257 
  379000    37.077073  0.027085697    157.92479    287.93748          600          600          600 0.0069960454    12992.742 0.00014665257 
  380000    48.740428 -0.00076041948    160.19864    292.08329          600          600          600   0.01127084    12790.476 0.00014665257 
  381000    34.341233 0.0015339686    167.73945    305.83212          600          600          600 -0.001988749    12452.842 0.00014665257 
  382000    50.486289 -0.044431594    187.19091    341.29713          600          600          600 -0.020279652     12860.44 0.00014665257 
  383000    38.067454 -0.017455727    172.41155    314.35056          600          600          600 -0.029037899    13010.475 0.00014665257 
  384000    46.571212 -0.017127351    165.23842    301.27209          600          600          600 -0.034426676    13212.653 0.00014665257 
  385000    35.575293  0.015709368    162.84452    296.90739          600          600          600  0.019543572    13912.471 0.00014665257 
  386000    50.255143 -0.013596645    171.23057    312.19732          600          600          600 -0.017094044     13645.56 0.00014665257 
  387000    32.051168  0.017496045    178.00216    324.54367          600          600          600  0.043453198    13936.093 0.00014665257 
  388000    44.937991 -0.0015778711    159.43225    290.68596          600          600          600 -0.000618696    13985.069 0.00014665257 
  389000    32.193499 -1.5331775e-05    165.11426    301.04572          600          600          600 -0.050296716    13867.852 0.00014665257 
  390000    35.445879 -0.0071033911    169.91438    309.79756          600          600          600 -0.0086137604    13712.567 0.00014665257 
  391000    40.106991  0.026387246    171.80518    313.24499          600          600          600  0.072480933    14050.658 0.00014665257 
  392000    31.851172   0.01380524    165.48093    301.71426          600          600          600  0.039563698    13842.542 0.00014665257 
  393000    40.168519 -0.0041404875    161.92908    295.23831          600          600          600 -0.021939868    13935.352 0.00014665257 
  394000    40.877161   0.01349181    182.14997     332.1062          600          600          600  0.019060657    14066.066 0.00014665257 
  395000      34.8036 -0.0088064239    175.69129    320.33036          600          600          600 -0.016390988    13771.819 0.00014665257 
  396000    42.377476 -0.037165115    149.77309    273.07483          600          600          600 -0.052474479    14257.853 0.00014665257 
  397000    40.945388 0.0061332133    174.09603    317.42179          600          600          600  0.027864625    14142.044 0.00014665257 
  398000    49.414493 -0.0072269328    181.79837    331.46514          600          600          600  0.011589676    14985.116 0.00014665257 
  399000    53.182417  0.022397753    153.68825    280.21317          600          600          600 -0.022560162    15408.283 0.00014665257 
  400000    44.401178  0.043668263     175.3761    319.75569          600          600          600  0.021327486    15285.643 0.00014665257 
  401000     43.57352 -0.021937536      151.862    276.88345          600          600          600 -0.028226438     14845.57 0.00014665257 
  402000    41.524307 -0.010172785    165.37474    301.52065          600          600          600 -0.021476296    15561.548 0.00014665257 
  403000     30.14189  0.020067479    174.32208    317.83394          600          600          600 -0.0096800313    15084.332 0.00014665257 
  404000    42.388018  0.012591812    158.53179    289.04418          600          600          600  0.015984114    14620.719 0.00014665257 
  405000    40.174514 0.00050730305    182.79446    333.28127          600          600          600  0.023783452    15121.039 0.00014665257 
  406000    46.214546 0.0083450818    168.23738    306.73998          600          600          600 0.0027155539    14976.608 0.00014665257 
  407000    30.879005 -0.0094646996      167.845    306.02455          600          600          600  -0.01015755    13476.541 0.00014665257 
  408000    34.844953 0.0093090868    168.75793    307.68906          600          600          600 -0.018851028    14461.073 0.00014665257 
  409000    40.753865 0.0031262619    164.70534    300.30016          600          600          600 -0.00059210854    14798.847 0.00014665257 
  410000    38.243279  0.018487202    182.87189    333.42245          600          600          600  0.025521477    14045.341 0.00014665257 
  411000     40.47515 -0.0091991791    169.63347    309.28541          600          600          600 0.0023509232    13965.465 0.00014665257 
  412000    50.257943 0.0030728644    174.97541    319.02513          600          600          600   -0.0154606    14186.817 0.00014665257 
  413000    44.573573  0.021110226    171.52481     312.7338          600          600          600  0.010603507    14267.796 0.00014665257 
  414000    47.229262 -0.002374651    163.62955    298.33871          600          600          600 0.00032111356    14378.778 0.00014665257 
  415000    34.855565   0.01883496    154.99496    282.59564          600          600          600  0.031769249    14587.463 0.00014665257 
  416000    31.396107  0.017925044    169.84369    309.66869          600          600          600  0.062391469    14110.121 0.00014665257 
  417000    47.758437 -0.018154174    177.98022    324.50368          600          600          600 -0.019358748    14092.059 0.00014665257 
  418000     42.88772 -0.015676437    184.66647    336.69442          600          600          600  0.013940591    13999.913 0.00014665257 
  419000    36.256464 -0.012723544    170.92383    311.63806          600          600          600 -0.0052678653    14545.676 0.00014665257 
  420000     37.57964 -0.039978348    161.64265    294.71608          600          600          600 -0.072739053    14563.859 0.00014665257 
  421000     60.40438  0.010941849     184.8994    337.11912          600          600          600 -0.0094638281     13915.01 0.00014665257 
  422000    32.540491 0.0069560088    159.49101    290.79309          600          600          600  0.035669378     13814.23 0.00014665257 
  423000    39.809005 0.0068762659    159.69846    291.17133          600          600          600 0.0088640909    15047.316 0.00014665257 
  424000    31.047931 -0.010854523    154.89413    282.41179          600          600          600 -0.0066515607    15389.626 0.00014665257 
  425000    47.910484 -0.006251201    177.04572    322.79983          600          600          600  0.025080235    15318.357 0.00014665257 
  426000    44.916138  0.016168079    168.76575    307.70333          600          600          600 -0.0074358356    15007.582 0.00014665257 
  427000    38.664954 -0.0060431121    160.93486    293.42561          600          600          600 -0.018841375    15144.899 0.00014665257 
  428000    47.412776  0.015537891    142.37279    259.58218          600          600          600 -0.015829702    14987.311 0.00014665257 
  429000    51.081166  -0.01177734    162.51834     296.3127          600          600          600  0.018976025    14805.377 0.00014665257 
  430000    45.216545 -0.0063650672    169.76031    309.51666          600          600          600 0.0044468427    15042.567 0.00014665257 
  431000    59.361733 0.0069904481    162.17823    295.69258          600          600          600 -0.0074189749    15753.491 0.00014665257 
  432000    29.073677  0.020754665    168.82738     307.8157          600          600          600  0.016214303    15635.744 0.00014665257 
  433000    40.604645 -0.0051513614    162.46936    296.22339          600          600          600 -0.029990471    15867.741 0.00014665257 
  434000    43.941007 -0.0071115614     185.6463    338.48091          600          600          600  0.013982009    16345.499 0.00014665257 
  435000    38.351588 -0.046805561    165.07724    300.97822          600          600          600 -0.068374402    16639.507 0.00014665257 
  436000    52.788873  -0.02280072    192.68797    351.31968          600          600          600  -0.01880803    15266.448 0.00014665257 
  437000     54.19971 -0.0079527105    169.42007    308.89632          600          600          600 -0.0074941014    15330.115 0.00014665257 
  438000    44.022167 -0.020004756    158.72147    289.39002          600          600          600 -0.019173829    14290.644 0.00014665257 
  439000    45.101883 0.0047232784    164.21209    299.40082          600          600          600  0.019904528    15124.692 0.00014665257 
  440000    47.796741 0.0027382378    172.32263    314.18843          600          600          600 0.0047419902    15809.009 0.00014665257 
  441000    43.249873  0.030167855    155.94626    284.33009          600          600          600  0.037016489    15335.551 0.00014665257 
  442000    46.713423 0.0085406028    173.59875    316.51512          600          600          600 -0.0068444466    15072.027 0.00014665257 
  443000    54.723417 0.0045635962    158.17699    288.39729          600          600          600  0.020726752    14777.834 0.00014665257 
  444000    41.863044   0.03171232     154.7407    282.13206          600          600          600  0.067681258    14784.137 0.00014665257 
  445000    48.122365 -0.0033334324     159.5958    290.98415          600          600          600 -0.029491227    15051.204 0.00014665257 
  446000    39.527169 -0.018055902    170.09762    310.13167          600          600          600 -0.017804065    15484.164 0.00014665257 
  447000    45.012845 -0.021872978     184.5776     336.5324          600          600          600 -0.0047003253    15561.548 0.00014665257 
  448000    43.138546 -0.014447823     163.6846    298.43909          600          600          600 -0.018175602    15627.472 0.00014665257 
  449000    40.942065 -0.0023752384    151.45213    276.13614          600          600          600 -0.018291282    16535.467 0.00014665257 
  450000    39.162149 -0.0073991949    155.68982    283.86255          600          600          600 0.0052497028    16941.686 0.00014665257 
  451000    47.459161  0.017489168    179.74184    327.71555          600          600          600  0.013313317     16170.25 0.00014665257 
  452000    44.099115 0.0034026235    178.93618    326.24662          600          600          600  0.016596219    16132.125 0.00014665257 
  453000    47.542482 -0.0037463159    162.49146    296.26369          600          600          600 -0.020488204     15862.22 0.00014665257 
  454000    42.195094 0.0056497775     179.7924    327.80774          600          600          600  0.018731879    16339.068 0.00014665257 
  455000    41.277727 -0.023295384     173.5436    316.41457          600          600          600  -0.04397646    16673.043 0.00014665257 
  456000     35.38443 -0.010251018    163.88959    298.81284          600          600          600 -0.026712801    16385.664 0.00014665257 
  457000    47.842412 -0.027890864    180.98423    329.98075          600          600          600 -0.071788819    16387.265 0.00014665257 
  458000    45.437581  -0.01296248    166.12089    302.88107          600          600          600 -0.0061210281    16427.893 0.00014665257 
  459000    38.015992 -0.0092900767    178.45907    325.37673          600          600          600  -0.01516336    16205.361 0.00014665257 
  460000    55.650049 -0.0052811475     151.3661     275.9793          600          600          600 -0.0078610759    15799.005 0.00014665257 
  461000    35.810212 -0.0093456611     172.4334     314.3904          600          600          600 0.0035531969     15794.84 0.00014665257 
  462000    37.703484 -0.019962304    144.75934    263.93346          600          600          600  -0.01973094    15848.614 0.00014665257 
  463000    30.786009 -0.018741089    178.36196    325.19969          600          600          600 -0.012440563    15110.961 0.00014665257 
  464000    33.796353 -0.019690342    158.30616    288.63281          600          600          600 0.0038441642    14488.147 0.00014665257 
  465000    37.122691  0.010359696    171.96218    313.53124          600          600          600 0.0031790957    14923.162 0.00014665257 
  466000    42.116392 -0.0081235436    173.78289    316.85087          600          600          600 -0.025401555    15040.949 0.00014665257 
  467000    53.931185 -0.027685855    169.68709    309.38316          600          600          600 0.0032340956     15517.62 0.00014665257 
  468000    49.538519 -0.018218768    162.12529    295.59605          600          600          600 -0.040726147    15711.416 0.00014665257 
  469000    34.802623 -0.013408514    171.45048    312.59828          600          600          600 -0.015632183    15437.091 0.00014665257 
  470000     55.23255 -0.035571358    171.84243    313.31291          600          600          600 -0.032965289    15353.178 0.00014665257 
  471000    47.853865 -0.043033946    161.33718    294.15913          600          600          600 -0.037479666    15741.607 0.00014665257 
  472000    44.118548 0.0059664466    161.87933    295.14762          600          600          600  0.027145644    15879.034 0.00014665257 
  473000    48.658931  0.017653527    158.00424    288.08233          600          600          600  0.027183682    15458.142 0.00014665257 
  474000    44.540855  0.045621156    193.88816    353.50794          600          600          600  0.055956957    16833.845 0.00014665257 
  475000    50.401879 -0.0034800417    174.12128    317.46784          600          600          600  -0.01874007    16202.732 0.00014665257 
  476000    52.475113 -0.0063023185    148.92177    271.52266          600          600          600 -0.014568554    15874.527 0.00014665257 
  477000    43.041032 -0.0012286004    154.69052    282.04056          600          600          600 -0.0021032926    15950.532 0.00014665257 
  478000    56.426715 -0.017661025    157.05127    286.34482          600          600          600 -0.0036017234    15209.594 0.00014665257 
  479000     49.10123 -0.0071728314    158.58204    289.13581          600          600          600 0.0089079151    15452.333 0.00014665257 
  480000    56.421678  0.014892004    162.91778    297.04098          600          600          600 -0.033094269    15918.266 0.00014665257 
  481000    57.396416 -0.0097066889    155.44058    283.40811          600          600          600 -0.0042402052    14382.871 0.00014665257 
  482000    50.313837 -0.0072434366    148.81144     271.3215          600          600          600 -0.022457572    14189.024 0.00014665257 
  483000    37.256256 -0.012832811     156.5334    285.40061          600          600          600 -0.013149289    14479.994 0.00014665257 
  484000    49.320055 -0.0044380857    160.19238    292.07187          600          600          600 -0.026906172    14711.901 0.00014665257 
  485000     48.54364 -0.019288971     158.5282    289.03763          600          600          600  -0.03083298    14107.368 0.00014665257 
  486000     46.93462 -0.0036882086    159.18739    290.23952          600          600          600 -0.0092179841    13903.202 0.00014665257 
  487000    36.610067  0.037030163    153.72279    280.27614          600          600          600  0.042916889    14189.408 0.00014665257 
  488000    38.146275  0.020551087    155.87902    284.20751          600          600          600  0.057570083    13947.957 0.00014665257 
  489000    38.773497 -0.0018432596    161.57203    294.58733          600          600          600 -0.001360509    13608.238 0.00014665257 
  490000     46.03154 -0.052019831    167.03538    304.54842          600          600          600 -0.059106137    14570.487 0.00014665257 
  491000     42.64841 0.0043319959     166.3794    303.35239          600          600          600 0.0055835951    14018.161 0.00014665257 
  492000    39.035343 -0.0062964025    166.02131     302.6995          600          600          600 -0.034217202    14476.995 0.00014665257 
  493000    41.919471  0.013494986    165.11211     301.0418          600          600          600  0.049182375    14882.073 0.00014665257 
  494000    45.203154 0.0031266611    160.94923    293.45179          600          600          600 0.0068831435    15913.918 0.00014665257 
  495000    40.948181  0.036259132    157.85336    287.80724          600          600          600  0.031338502    15194.111 0.00014665257 
  496000    39.318257 -0.0069625686    182.76997    333.23661          600          600          600 -0.019296844    15111.668 0.00014665257 
  497000    41.862876  0.045339215    181.61179    331.12496          600          600          600  0.031820731    15680.872 0.00014665257 
  498000     42.46175 0.0052629271    174.77296    318.65602          600          600          600 0.0025511724    15247.135 0.00014665257 
  499000      64.1866 -0.011378689    152.71819     278.4445          600          600          600 -0.038785283    14906.933 0.00014665257 
  500000    40.548869  0.011642545    159.45931    290.73529          600          600          600   0.01286686    14859.718 0.00014665257 
  501000    37.356348 -0.023328008    169.11843    308.34636          600          600          600 -0.018233724    14774.086 0.00014665257 
  502000    54.209408  0.024403275     173.1047    315.61435          600          600          600  0.026859406    14359.776 0.00014665257 
  503000    46.642211  0.026408971    161.54593    294.53973          600          600          600   0.01292133    13889.666 0.00014665257 
  504000    37.017779 -0.0085443807    189.24213    345.03702          600          600          600 0.0087513534    14049.481 0.00014665257 
  505000    41.731726  0.021588543    157.84223    287.78694          600          600          600  0.023238778    14259.647 0.00014665257 
  506000    51.677959 -0.0076201822    168.66548    307.52051          600          600          600  0.014977787    13969.605 0.00014665257 
  507000    45.410909  0.023338667    172.59518    314.68537          600          600          600 0.0083212836    15010.966 0.00014665257 
  508000    28.930827  0.036035946    156.00601    284.43905          600          600          600  0.019655943    14667.245 0.00014665257 
  509000    32.480767 0.0026607985    170.67595    311.18611          600          600          600 0.0018267343    14527.489 0.00014665257 
  510000    51.136325 -0.0015280188    153.90571    280.60966          600          600          600 -0.0024116905    14687.996 0.00014665257 
  511000     32.60169   0.03744375    182.51518    332.77207          600          600          600  0.042702817    15007.797 0.00014665257 
  512000     47.54219 -0.011895986     163.4619    298.03304          600          600          600 -0.0097915783     15071.81 0.00014665257 
  513000    40.610152 -0.011818266     160.4564    292.55325          600          600          600 -0.0026143304    15162.528 0.00014665257 
  514000    44.802867 -0.030262539    187.81936    342.44294          600          600          600 -0.024370232    14151.301 0.00014665257 
  515000    43.417969  -0.01156681    155.10395    282.79436          600          600          600 -0.0041942545    14471.351 0.00014665257 
  516000      37.4318 0.0082563529    164.33718     299.6289          600          600          600 -0.0097639101    14529.804 0.00014665257 
  517000    46.381855  0.016449452    165.42983    301.62108          600          600          600  0.031993575    13928.364 0.00014665257 
  518000    52.760161 -0.0049490049    161.74414    294.90113          600          600          600 -0.033290142    13912.471 0.00014665257 
  519000     53.30825  0.004721777    167.15572    304.76783          600          600          600  0.023476171    15542.922 0.00014665257 
  520000    35.901165 -0.0024306569    177.30847     323.2789          600          600          600 -0.00072025109    15117.333 0.00014665257 
  521000    36.191459 -0.014757306    166.90988     304.3196          600          600          600 -0.010138202    13971.978 0.00014665257 
  522000    47.587944 -0.0023181303    160.94187    293.43838          600          600          600  0.023005445    13369.493 0.00014665257 
  523000    43.553829 -0.023027379     157.6625    287.45925          600          600          600 -0.031184278    13472.732 0.00014665257 
  524000    32.712649 -0.025254177    173.44275     316.2307          600          600          600 -0.042828407    13233.664 0.00014665257 
  525000    43.664341  0.013411169    163.76603    298.58754          600          600          600  0.030767785    13170.708 0.00014665257 
  526000    30.830388 -0.0099365087    157.66618    287.46596          600          600          600 -0.019947469    13626.763 0.00014665257 
  527000    41.644141  0.022717937    161.56625    294.57678          600          600          600 0.0050299822    13856.352 0.00014665257 
  528000    49.583347 0.00026662064    153.92968    280.65336          600          600          600  0.014020468    13654.667 0.00014665257 
  529000    40.595619 0.0076433729    175.43362    319.86056          600          600          600  0.025167229    13605.104 0.00014665257 
  530000    43.466831  0.023690668    180.14576    328.45201          600          600          600  0.017117161    13752.312 0.00014665257 
  531000    43.790412 -0.0038292918    179.29346    326.89804          600          600          600  0.010968352    13851.548 0.00014665257 
  532000    38.927443 0.0075249507    166.81834    304.15269          600          600          600  0.014133584    13992.114 0.00014665257 
  533000    42.139983 -0.0088500711    149.64256    272.83684          600          600          600 -0.0034108252    14044.353 0.00014665257 
  534000    48.557113  0.013381381    162.20344    295.73855          600          600          600  0.028291968    14836.538 0.00014665257 
  535000    37.514325  0.011324223    184.88071    337.08504          600          600          600  -0.00886426    15081.837 0.00014665257 
  536000     38.23804  0.043734689    187.51882      341.895          600          600          600  0.032939758    15439.251 0.00014665257 
  537000    30.824096 -0.017542494    165.00642    300.84911          600          600          600 -0.024579921    14988.704 0.00014665257 
  538000    39.095817  0.014990323    145.05445    264.47154          600          600          600 0.00043128796    15152.175 0.00014665257 
  539000    42.096056 -0.006829518    170.02171    309.99326          600          600          600 0.0043230041    15570.965 0.00014665257 
  540000    39.772052  0.030322495    157.73748    287.59596          600          600          600   0.01474555    15352.504 0.00014665257 
  541000    43.047282  0.018881099    149.53546    272.64157          600          600          600  0.035424615     14912.71 0.00014665257 
  542000    38.348207 -0.0073009663    152.09442    277.30721          600          600          600 -9.6163056e-06    14743.187 0.00014665257 
  543000    28.281893 0.0093332745    168.72619    307.63119          600          600          600  0.026765414    14682.545 0.00014665257 
  544000    44.757283 -0.011845737    159.69721    291.16905          600          600          600 -0.0031518715    13675.413 0.00014665257 
  545000    35.168434  0.020423011    157.40808    286.99537          600          600          600  0.037576026    13702.353 0.00014665257 
[...]
 4869000    42.626775 -0.012710975    153.94284    280.67736          600          600          600 -0.014225728    11735.864 0.00014665257 
 4870000    52.035462 -0.028721684    159.97972    291.68413          600          600          600 -0.026165939    11995.275 0.00014665257 
 4871000    52.592462 -0.047175088     159.0294    289.95146          600          600          600 -0.060933571    12822.657 0.00014665257 
 4872000    43.648309 0.0066573068    170.44214    310.75981          600          600          600  0.010158916    12461.055 0.00014665257 
 4873000    40.016143 0.0065274568    161.85089    295.09576          600          600          600 -0.005111308    12856.301 0.00014665257 
 4874000    42.567812 0.0066769962    174.08171    317.39568          600          600          600 -0.046007858    12127.979 0.00014665257 
 4875000    37.044458 -0.0034912394    168.13406    306.55159          600          600          600  0.024841186     12128.54 0.00014665257 
 4876000    46.648159   0.01286159    149.55195    272.67163          600          600          600  0.012636875    12079.916 0.00014665257 
 4877000    43.590071 -0.032180015    142.99612    260.71867          600          600          600 -0.044504912    12229.432 0.00014665257 
 4878000    44.497524 0.0038615497    169.79205    309.57453          600          600          600 0.0058624848    11569.919 0.00014665257 
 4879000    42.627906 -0.049480961    162.54388    296.35925          600          600          600 -0.063618524    11593.008 0.00014665257 
 4880000    40.705135 0.0050991253      172.054    313.69866          600          600          600 -0.0037148523    11755.172 0.00014665257 
 4881000    37.975883 -0.019269079    154.54287    281.77137          600          600          600  0.009439204    12557.608 0.00014665257 
 4882000    44.330291 -0.037468399    161.64714    294.72427          600          600          600 -0.015003416    12761.289 0.00014665257 
 4883000    39.053493 -0.0081881357    160.30766    292.28205          600          600          600 -0.010430705    13596.152 0.00014665257 
 4884000    43.360066  0.017533442    183.35296    334.29956          600          600          600 0.0027072057    12677.013 0.00014665257 
 4885000    45.952736  0.017599522    158.32397    288.66527          600          600          600  0.058226246    11453.057 0.00014665257 
 4886000    31.192779  0.028454756    172.89618    315.23415          600          600          600  0.029614556    11351.389 0.00014665257 
 4887000    37.082899 -0.034912699    169.54243    309.11941          600          600          600 -0.027956124    11002.665 0.00014665257 
 4888000    46.060948  0.001918423    181.03339    330.07038          600          600          600 -0.005299778    11684.014 0.00014665257 
 4889000     42.14476  0.043454355    158.22887    288.49188          600          600          600  0.017639315    12335.934 0.00014665257 
 4890000    46.875846 -0.0058928578    155.33118    283.20864          600          600          600 -0.016069131    12351.919 0.00014665257 
 4891000    53.667708 0.0079018822    173.05035    315.51525          600          600          600  0.050206459    11891.178 0.00014665257 
 4892000    37.021584 0.00059382355    165.90918    302.49506          600          600          600 -0.013931436    12266.952 0.00014665257 
 4893000    33.440202 0.0029560668    175.85367    320.62643          600          600          600 -0.012865923    12279.881 0.00014665257 
 4894000     40.03694 -0.016071546    169.77922    309.55115          600          600          600 -0.0087768944    12857.602 0.00014665257 
 4895000     50.79773 0.0028922108    176.94671    322.61932          600          600          600  -0.01095432    12673.949 0.00014665257 
 4896000     43.83985   -0.0090056    159.31027    290.46356          600          600          600 -0.029000565      12259.1 0.00014665257 
 4897000    50.618832  0.022057702    171.14188    312.03562          600          600          600  0.019843074    12549.267 0.00014665257 
 4898000    43.796905 -0.0076580993    178.90197    326.18425          600          600          600 -0.0045390469    12430.845 0.00014665257 
 4899000    32.480015  0.012291042    171.14854    312.04777          600          600          600  0.018511885    12295.865 0.00014665257 
 4900000    40.648978  0.020352502     155.7653    284.00017          600          600          600  0.010652139    11873.102 0.00014665257 
 4901000    43.634565  -0.01940311    183.26509    334.13935          600          600          600 -0.021798319    12197.354 0.00014665257 
 4902000    46.790524 -0.032280948     161.5021    294.45982          600          600          600 -0.017246364    11507.228 0.00014665257 
 4903000    49.635053 -0.060507356    166.83217    304.17791          600          600          600 -0.057328612     10896.56 0.00014665257 
 4904000    54.570432  -0.02701582    182.71039    333.12799          600          600          600 -0.040443466    11341.474 0.00014665257 
 4905000     47.97474  0.010392365    167.51947    305.43103          600          600          600 0.0074835125    12406.651 0.00014665257 
 4906000    50.857813 -0.0064321325    178.42894     325.3218          600          600          600 0.0028612117    13287.074 0.00014665257 
 4907000    35.349885 0.0060762973    171.44019    312.57952          600          600          600 -0.014694881    13222.984 0.00014665257 
 4908000    38.716758 -0.0050972105      174.401    317.97784          600          600          600 -0.008733301    12195.261 0.00014665257 
 4909000    40.326991  0.017017707    173.05485    315.52345          600          600          600  0.028744325    12423.592 0.00014665257 
 4910000    24.873656 -0.039473492    156.81451    285.91315          600          600          600 -0.053353868    12545.814 0.00014665257 
 4911000    31.438367  0.029976084    174.73769     318.5917          600          600          600  0.041692428        13011 0.00014665257 
 4912000    42.298599 -0.0090852626    165.08017    300.98357          600          600          600 -0.038526215    13072.761 0.00014665257 
 4913000    31.956346 -0.0016103842     159.6978    291.17012          600          600          600 -0.018763558    11393.138 0.00014665257 
 4914000    32.870989 0.0085353376    156.66778    285.64561          600          600          600 -0.0095204907    12768.632 0.00014665257 
 4915000    40.134212  0.010215896    176.38181    321.58937          600          600          600  0.015433066    12929.739 0.00014665257 
 4916000    44.433297 -0.050917144    162.20076    295.73367          600          600          600 -0.047503003    12662.088 0.00014665257 
 4917000    36.720085 -0.0016354759    170.83516    311.47639          600          600          600 -0.014295204    11869.977 0.00014665257 
 4918000    55.399213  0.013251133    175.72914    320.39937          600          600          600  0.033111273    11474.614 0.00014665257 
 4919000    31.227406  0.033541011    148.54132    270.82899          600          600          600   0.03770681    11681.151 0.00014665257 
 4920000    40.430744 -0.0071465268    176.11889    321.10999          600          600          600 -0.015104009    11459.753 0.00014665257 
 4921000     43.44962 0.0063292803    154.69101    282.04146          600          600          600  0.029140406    11463.794 0.00014665257 
 4922000    36.018083  0.028722994    181.80393    331.47528          600          600          600  0.048938026    11617.637 0.00014665257 
 4923000    37.564071 -0.0038099675    174.87833    318.84812          600          600          600 -0.0048878691    11492.409 0.00014665257 
 4924000    36.395487   0.02056268      174.257    317.71529          600          600          600 -0.010799907    11899.241 0.00014665257 
 4925000    47.480584 -0.032594836    174.96335    319.00313          600          600          600 -0.030839209    12137.385 0.00014665257 
 4926000    40.922023  0.013196413     153.5028    279.87505          600          600          600 0.0064056002    11674.355 0.00014665257 
 4927000    42.789346 -0.011036896    165.56083    301.85993          600          600          600 -0.0097741512    11481.178 0.00014665257 
 4928000    53.809186 -0.036355768    157.88172    287.85894          600          600          600 -0.016163779    12456.392 0.00014665257 
 4929000    42.628998 0.0014924024    166.14402    302.92324          600          600          600 -0.0056524362    12401.588 0.00014665257 
 4930000    46.809241  0.020858674    167.75036    305.85201          600          600          600   0.01147676    12066.363 0.00014665257 
 4931000    39.189572  0.061525371    164.73701    300.35789          600          600          600  0.021458664    12151.979 0.00014665257 
 4932000    49.525341 -0.0062735634    174.09675    317.42311          600          600          600 -0.025983809    12611.603 0.00014665257 
 4933000    40.947855  -0.01542605     178.0685    324.66462          600          600          600 0.0003327559    12872.676 0.00014665257 
 4934000     47.70255 -0.021132476    152.16097    277.42854          600          600          600  -0.04368179    12384.232 0.00014665257 
 4935000    49.799374 -0.0056255322    164.17943    299.34128          600          600          600 0.0097075408    12679.888 0.00014665257 
 4936000    52.327409 -0.010021217    174.44821     318.0639          600          600          600 -0.030643427    12958.381 0.00014665257 
 4937000    43.649042 -0.022390643    168.09994    306.48937          600          600          600 -0.010309837    13427.144 0.00014665257 
 4938000    37.138044  0.040431542    156.52792    285.39061          600          600          600  0.063734928     13892.38 0.00014665257 
 4939000       54.225  0.012707249    162.32167    295.95411          600          600          600 -0.0059857088     13561.16 0.00014665257 
 4940000    41.804836 -0.0074135529     165.5049    301.75795          600          600          600  0.003879653    13213.195 0.00014665257 
 4941000    51.431795  0.023014681    150.12239     273.7117          600          600          600  0.029648817    12829.207 0.00014665257 
 4942000    51.641435  -0.02148315    156.53595    285.40525          600          600          600 -0.021836097     13071.58 0.00014665257 
 4943000    47.346775  0.027689526    151.05314    275.40868          600          600          600  0.030996856    13487.983 0.00014665257 
 4944000    36.985643 -0.0068106678    166.58188    303.72156          600          600          600 -0.0073742924    13554.717 0.00014665257 
 4945000    37.482818 -0.018942497    157.10504    286.44285          600          600          600  0.043900613    13115.274 0.00014665257 
 4946000    30.656791  0.017217326    155.07472    282.74106          600          600          600 -0.0042643899    12902.216 0.00014665257 
 4947000     32.71275 -0.025133304    154.59137    281.85979          600          600          600 -0.0047711203    12432.577 0.00014665257 
 4948000    45.342253 0.0064123488    191.01423    348.26803          600          600          600 -0.011489053    12374.695 0.00014665257 
 4949000    52.687569 -0.0014640554    167.50851    305.41106          600          600          600 -0.010685309    12221.059 0.00014665257 
 4950000    48.282126 -0.0018660602     164.6846    300.26234          600          600          600 -0.018708491    12111.659 0.00014665257 
 4951000    42.418049 -0.015686652    169.66509    309.34304          600          600          600 -0.016517518    11841.058 0.00014665257 
 4952000    43.032842  0.016616438    161.05193    293.63904          600          600          600  0.030367304    12154.796 0.00014665257 
 4953000    44.103156 -0.013902797    163.63869    298.35539          600          600          600 -0.033164822    12083.571 0.00014665257 
 4954000    52.353211  0.047555398     148.6951    271.10938          600          600          600  0.029958579    10985.145 0.00014665257 
 4955000    37.074961 -0.0021116109    160.71965    293.03322          600          600          600  0.042478388    11259.121 0.00014665257 
 4956000    45.242836 -0.042421349    182.28183    332.34662          600          600          600 -0.043565376    11134.838 0.00014665257 
 4957000    45.492263 -0.0067874383    153.68846    280.21354          600          600          600  -0.02392538    11606.739 0.00014665257 
 4958000    39.470381 -0.00091985669    157.02737    286.30123          600          600          600  0.020425821    11731.859 0.00014665257 
 4959000    38.726487 -0.013407903     163.2712    297.68534          600          600          600 -0.018411051    11990.098 0.00014665257 
 4960000      31.0892  0.020866155    177.55394    323.72645          600          600          600 -0.0002466414    12282.003 0.00014665257 
 4961000    48.446405 0.0042492258    179.57812    327.41705          600          600          600 0.0049905179    11883.968 0.00014665257 
 4962000    38.776868  0.017513518    166.07524    302.79783          600          600          600    0.0234329    11250.997 0.00014665257 
 4963000    38.666373  0.024946719    166.10023    302.84341          600          600          600  0.024917809    11169.442 0.00014665257 
 4964000    35.390628  0.011672254     170.7044    311.23798          600          600          600  0.029364827    11920.648 0.00014665257 
 4965000    48.039031 0.0032158872    139.37238    254.11166          600          600          600  -0.01660279    11922.377 0.00014665257 
 4966000    41.473556    0.0280292    171.14038    312.03288          600          600          600  0.016258993    11866.485 0.00014665257 
 4967000    39.571258 -0.019407174    160.86931    293.30609          600          600          600 -0.030195622    11889.055 0.00014665257 
 4968000    56.831136 -0.0086839471     181.3414    330.63197          600          600          600 -0.0024755807    11678.971 0.00014665257 
 4969000    41.780297 -0.030303592    156.06822    284.55247          600          600          600 -0.041196167    11680.305 0.00014665257 
 4970000    34.467639 -0.0044691811     172.7842    315.02999          600          600          600  0.013383015    11938.734 0.00014665257 
 4971000    38.443159  0.011987356    146.16952    266.50459          600          600          600   0.01108548    12090.154 0.00014665257 
 4972000    41.184973  0.028530494    156.24625    284.87706          600          600          600  0.026771331    12482.528 0.00014665257 
 4973000    33.614294 0.0044741137    163.13827    297.44299          600          600          600  0.017023101     12671.23 0.00014665257 
 4974000    43.928385  -0.05969555    143.39305    261.44237          600          600          600 -0.052366367    12638.547 0.00014665257 
 4975000    38.233409 -0.0014718822    154.35219     281.4237          600          600          600 0.00066982009    13191.212 0.00014665257 
 4976000    46.981149 -0.028572869    148.96758    271.60617          600          600          600 -0.016141804     13747.76 0.00014665257 
 4977000    48.677203  0.014287759    182.01357    331.85751          600          600          600  0.044093595    13990.527 0.00014665257 
 4978000    48.915808 -0.0077673029    167.43385    305.27493          600          600          600 -0.024651563    13961.607 0.00014665257 
 4979000    54.966519 0.0079275915    167.28196      304.998          600          600          600 -0.0087506735    14195.892 0.00014665257 
 4980000    46.289269  0.056358975    161.07971     293.6897          600          600          600  0.060567403    13554.893 0.00014665257 
 4981000    53.212726  0.016358441    159.95678    291.64231          600          600          600 0.0016248095    13974.119 0.00014665257 
 4982000    40.474633 -0.0084565255    154.59875    281.87325          600          600          600 -0.002634277    14444.588 0.00014665257 
 4983000    42.395175  0.024518019    167.15038    304.75809          600          600          600  0.019698536    13855.986 0.00014665257 
 4984000    53.962566 -0.0019607742     158.5919    289.15377          600          600          600 -0.026248901    14709.321 0.00014665257 
 4985000    40.245204 0.0091998024     176.8107    322.37134          600          600          600 -0.020055107    14049.105 0.00014665257 
 4986000    48.179502 -0.002765485    179.80486    327.83047          600          600          600  0.027189212    14228.977 0.00014665257 
 4987000    33.757482  0.020590134    147.86535    269.59652          600          600          600   0.01500326     13437.64 0.00014665257 
 4988000    47.767475  0.021446933    167.76943    305.88677          600          600          600  0.022905714    13026.234 0.00014665257 
 4989000     42.63298 -0.013864318    161.42835    294.32536          600          600          600 -0.035758315     12458.76 0.00014665257 
 4990000      44.6225  0.035046083    164.60787    300.12244          600          600          600  0.025218691    11872.665 0.00014665257 
 4991000    37.801411 -0.014573016    163.29337    297.72577          600          600          600 0.0012940076    11688.801 0.00014665257 
 4992000    35.536255   0.03008111    170.66331    311.16306          600          600          600  0.024608286     11618.86 0.00014665257 
 4993000    46.611372 -0.010758118    155.10476    282.79583          600          600          600 -0.027172612    11161.208 0.00014665257 
 4994000    40.261324  0.022436671    185.29408    337.83871          600          600          600  0.011018878    11629.653 0.00014665257 
 4995000    40.014309 -0.00071904079    177.15776    323.00412          600          600          600 3.1941379e-05      12101.7 0.00014665257 
 4996000    42.178998 -0.003117189    184.60552    336.58329          600          600          600 -0.011175934     11534.03 0.00014665257 
 4997000    41.062347 -0.011500952    162.18866     295.7116          600          600          600 -0.00065117995    11808.056 0.00014665257 
 4998000    42.891024 -0.022680579    160.12341    291.94612          600          600          600 -0.020742907    11737.375 0.00014665257 
 4999000    43.081881  0.008473862    155.86427    284.18061          600          600          600 -0.0032705948    12050.936 0.00014665257 
 5000000    41.285674  0.008863445    163.78958    298.63048          600          600          600 -0.0055394147    11617.251 0.00014665257 
Loop time of 380.008 on 1 procs for 5000000 steps with 185 atoms

Performance: 11368.182 ns/day, 0.002 hours/ns, 13157.618 timesteps/s
99.9% CPU use with 1 MPI tasks x no OpenMP threads

MPI task timing breakdown:
Section |  min time  |  avg time  |  max time  |%varavg| %total
---------------------------------------------------------------
Pair    | 245.57     | 245.57     | 245.57     |   0.0 | 64.62
Bond    | 8.8849     | 8.8849     | 8.8849     |   0.0 |  2.34
Neigh   | 63.448     | 63.448     | 63.448     |   0.0 | 16.70
Comm    | 4.3975     | 4.3975     | 4.3975     |   0.0 |  1.16
Output  | 0.5003     | 0.5003     | 0.5003     |   0.0 |  0.13
Modify  | 41.835     | 41.835     | 41.835     |   0.0 | 11.01
Other   |            | 15.37      |            |       |  4.05

Nlocal:        185.000 ave         185 max         185 min
Histogram: 1 0 0 0 0 0 0 0 0 0
Nghost:        143.000 ave         143 max         143 min
Histogram: 1 0 0 0 0 0 0 0 0 0
Neighs:        2969.00 ave        2969 max        2969 min
Histogram: 1 0 0 0 0 0 0 0 0 0

Total # of neighbors = 2969
Ave neighs/atom = 16.048649
Ave special neighs/atom = 1.9891892
Neighbor list builds = 138812
Dangerous builds = 49
Total wall time: 0:06:20
