LAMMPS (10 Mar 2021)
Reading data file ...
  orthogonal box = (-300.00000 -300.00000 -300.00000) to (300.00000 300.00000 300.00000)
  1 by 1 by 1 MPI processor grid
  reading atoms ...
  71 atoms
  scanning bonds ...
  1 = max bonds/atom
  reading bonds ...
  70 bonds
Finding 1-2 1-3 1-4 neighbors ...
  special bond factors lj:    0        0        0       
  special bond factors coul:  0        0        0       
     2 = max # of 1-2 neighbors
     2 = max # of 1-3 neighbors
     4 = max # of 1-4 neighbors
     6 = max # of special neighbors
  special bonds CPU = 0.000 seconds
  read_data CPU = 0.009 seconds
Setting atom values ...
  1 settings made for charge
Setting atom values ...
  0 settings made for charge
Setting atom values ...
  4 settings made for charge
Setting atom values ...
  0 settings made for charge
Setting atom values ...
  1 settings made for charge
Setting atom values ...
  0 settings made for charge
Setting atom values ...
  7 settings made for charge
Setting atom values ...
  0 settings made for charge
Setting atom values ...
  6 settings made for charge
Setting atom values ...
  0 settings made for charge
Finding 1-2 1-3 1-4 neighbors ...
  special bond factors lj:    0        1        1       
  special bond factors coul:  0        1        1       
     2 = max # of 1-2 neighbors
     6 = max # of special neighbors
  special bonds CPU = 0.000 seconds
New timer settings: style=normal  mode=nosync  timeout=11:50:00

CITE-CITE-CITE-CITE-CITE-CITE-CITE-CITE-CITE-CITE-CITE-CITE-CITE

Your simulation uses code contributions which should be cited:

- neighbor multi command:

@Article{Intveld08,
 author =  {P.{\,}J.~in{\,}'t~Veld and S.{\,}J.~Plimpton and G.{\,}S.~Grest},
 title =   {Accurate and Efficient Methods for Modeling Colloidal
            Mixtures in an Explicit Solvent using Molecular Dynamics},
 journal = {Comp.~Phys.~Comm.},
 year =    2008,
 volume =  179,
 pages =   {320--329}
}

CITE-CITE-CITE-CITE-CITE-CITE-CITE-CITE-CITE-CITE-CITE-CITE-CITE

Neighbor list info ...
  update every 10 steps, delay 0 steps, check yes
  max neighbors/atom: 2000, page size: 100000
  master list distance cutoff = 38.5
  ghost atom cutoff = 38.5
  binsize = 8.7926654, bins = 69 69 69
  2 neighbor lists, perpetual/occasional/extra = 2 0 0
  (1) pair wf/cut, perpetual
      attributes: half, newton on
      pair build: half/multi/newton
      stencil: half/multi/3d/newton
      bin: standard
  (2) pair coul/debye, perpetual, skip from (1)
      attributes: half, newton on
      pair build: skip
      stencil: none
      bin: none
Per MPI rank memory allocation (min/avg/max) = 10.86 | 10.86 | 10.86 Mbytes
Step PotEng Press KinEng Temp Lx Ly Lz Pzz S/CPU Density TotEng E_vdwl E_coul E_pair E_bond E_angle E_dihed E_impro E_mol E_long E_tail Enthalpy Ecouple Econserve 
       0    3222.7795   -1.8688826            0            0          600          600          600            0            0 5.9070443e-05    3222.7795  -0.15528322 -0.044435075  -0.19971829    3222.9792            0            0            0    3222.9792            0            0   -2664.4596            0    3222.7795 
    1000    24.352795  0.020862757     202.9554    972.67615          600          600          600  0.003873061    19100.702 5.9070443e-05     227.3082   -4.1628788  -0.25510143   -4.4179803    28.770776            0            0            0    28.770776            0            0    293.02877            0     227.3082 
    2000    21.014853  -0.01776196    68.996994    330.67231          600          600          600 -0.0038585004    35095.254 5.9070443e-05    90.011847   -3.6021669  -0.30264459   -3.9048115    24.919664            0            0            0    24.919664            0            0    34.059212            0    90.011847 
    3000    20.924834 -0.0037668914    73.459311    352.05823          600          600          600  0.008322446    39558.456 5.9070443e-05    94.384144   -2.1213786  -0.14637646   -2.2677551    23.192589            0            0            0    23.192589            0            0    82.517915            0    94.384144 
    4000    16.327692  0.017009925    67.334897    322.70661          600          600          600 0.0033772419    36548.484 5.9070443e-05    83.662589   -1.4878882  -0.63006532   -2.1179535    18.445645            0            0            0    18.445645            0            0    137.24621            0    83.662589 
    5000    13.297551  0.011313991    63.570399    304.66502          600          600          600  0.017082535    35208.676 5.9070443e-05     76.86795   -2.8946468  -0.69373172   -3.5883786    16.885929            0            0            0    16.885929            0            0    112.50859            0     76.86795 
    6000    11.255124 -0.022256051    61.422111    294.36922          600          600          600 -0.011163006    36585.784 5.9070443e-05    72.677234   -5.4711949   -0.2392404   -5.7104353    16.965559            0            0            0    16.965559            0            0     2.567593            0    72.677234 
    7000    14.575129  0.013651043    60.828729     291.5254          600          600          600  0.011039865    34868.848 5.9070443e-05    75.403857   -4.8859252   -0.0428132   -4.9287384    19.503867            0            0            0    19.503867            0            0    118.40653            0    75.403857 
    8000    18.371387 -0.0017964712     72.36118    346.79538          600          600          600 -0.010786527    36508.082 5.9070443e-05    90.732567   -2.8386022  -0.18585092   -3.0244532     21.39584            0            0            0     21.39584            0            0    85.073434            0    90.732567 
    9000    13.958625 -0.003798423      66.7575     319.9394          600          600          600 -0.0056810783    36485.851 5.9070443e-05    80.716125    -7.071099  -0.31509117   -7.3861901    21.344815            0            0            0    21.344815            0            0    68.750567            0    80.716125 
   10000    12.532561 0.0070333975     67.16898    321.91144          600          600          600  0.006599948    34370.244 5.9070443e-05    79.701541   -5.5029235  -0.26134588   -5.7642694     18.29683            0            0            0     18.29683            0            0    101.85772            0    79.701541 
   11000    17.728375 -0.0028084644    58.662268    281.14251          600          600          600 -0.0059638092    33690.271 5.9070443e-05    76.390643    -5.697096   -0.4845122   -6.1816082    23.909983            0            0            0    23.909983            0            0    67.543592            0    76.390643 
   12000    16.372685 0.0057873643    68.562976    328.59225          600          600          600 -0.0051765256    35000.659 5.9070443e-05    84.935661   -4.2684456  -0.46594436   -4.7343899    21.107075            0            0            0    21.107075            0            0    103.16666            0    84.935661 
   13000    7.9349084  0.014684264    62.841161     301.1701          600          600          600  0.010759341    31749.054 5.9070443e-05    70.776069   -4.2991222  -0.35542171   -4.6545439    12.589452            0            0            0    12.589452            0            0    117.03353            0    70.776069 
   14000    15.732205 -0.018378101    62.672571    300.36213          600          600          600 -0.025949062    35523.876 5.9070443e-05    78.404776   -4.8217488   -0.1513267   -4.9730755    20.705281            0            0            0    20.705281            0            0    20.511213            0    78.404776 
   15000     16.88777 0.0072559965    54.643919    261.88432          600          600          600  0.014477335    37797.419 5.9070443e-05    71.531689   -1.7568212 -0.024240697   -1.7810619    18.668832            0            0            0    18.668832            0            0    94.389083            0    71.531689 
   16000    16.096215 -0.0054214308    62.512319    299.59411          600          600          600 -0.023692474    37486.629 5.9070443e-05    78.608534   -3.5477822   -0.3383907   -3.8861729    19.982388            0            0            0    19.982388            0            0    61.530276            0    78.608534 
   17000    21.417083 0.0029081862     68.22337    326.96467          600          600          600 -0.00083071141    36802.794 5.9070443e-05    89.640452 -0.045292176  -0.20622028  -0.25151246    21.668595            0            0            0    21.668595            0            0    98.801641            0    89.640452 
   18000    15.590945  0.020447584    69.763349    334.34511          600          600          600  0.025345571    36840.615 5.9070443e-05    85.354294   -5.3061892  -0.15626712   -5.4624563    21.053402            0            0            0    21.053402            0            0    149.76701            0    85.354294 
   19000    21.530689 -0.011098118    64.888839    310.98372          600          600          600 -0.027367423    38262.564 5.9070443e-05    86.419528   -5.3449071  -0.22226866   -5.5671758    27.097865            0            0            0    27.097865            0            0     51.45892            0    86.419528 
   20000    23.354134 -0.022150737    60.730856    291.05634          600          600          600 -0.029931045    35681.324 5.9070443e-05     84.08499   -4.1386684  -0.22513258   -4.3638009    27.717935            0            0            0    27.717935            0            0    14.307103            0     84.08499 
   21000    15.540604 -0.0044943354    51.393585     246.3069          600          600          600  0.015873153     34704.11 5.9070443e-05    66.934189   -5.4246801  -0.37115699    -5.795837    21.336441            0            0            0    21.336441            0            0     52.77641            0    66.934189 
   22000    17.335058 -0.012373496    71.719272    343.71899          600          600          600 -0.011814538    35403.336 5.9070443e-05    89.054329   -6.1768916   -0.4071343   -6.5840259    23.919084            0            0            0    23.919084            0            0    50.076103            0    89.054329 
   23000     18.21402 -0.013264037    63.882101    306.15887          600          600          600 -0.0087637016    36077.552 5.9070443e-05    82.096121   -4.7540992  -0.13424846   -4.8883477    23.102368            0            0            0    23.102368            0            0    40.312566            0    82.096121 
   24000    9.8557058 -0.0037859919     69.40155    332.61117          600          600          600 -0.015763511    36912.592 5.9070443e-05    79.257256   -4.8929417  -0.36352481   -5.2564665    15.112172            0            0            0    15.112172            0            0    67.330857            0    79.257256 
   25000     16.42319 -0.0046978045    71.297587    341.69804          600          600          600  -0.01698194    35599.857 5.9070443e-05    87.720777   -6.4067272  -0.54145513   -6.9481823    23.371372            0            0            0    23.371372            0            0    72.922042            0    87.720777 
   26000    16.101204 0.0058867096    53.882837    258.23679          600          600          600 0.0045720088     35454.81 5.9070443e-05    69.984041   -6.2184527  -0.45490509   -6.6733577    22.774561            0            0            0    22.774561            0            0    88.527991            0    69.984041 
   27000    14.466574 -0.010266409    64.566548    309.43912          600          600          600 -0.0076369112    32465.412 5.9070443e-05    79.033121   -3.5033982  -0.80458445   -4.3079827    18.774556            0            0            0    18.774556            0            0    46.692512            0    79.033121 
   28000    13.537403  0.016336107    65.513518    313.97754          600          600          600 8.9154231e-05    32992.244 5.9070443e-05     79.05092   -3.3703353  -0.29516495   -3.6655002    17.202903            0            0            0    17.202903            0            0    130.51192            0     79.05092 
   29000    14.893838 0.0097326927    64.205281    307.70773          600          600          600 0.0087679211    33681.343 5.9070443e-05    79.099119   -4.5653842  -0.35429969   -4.9196839    19.813521            0            0            0    19.813521            0            0    109.75845            0    79.099119 
   30000    19.781875 -0.0021861163    59.950608    287.31695          600          600          600 -0.0036057885    29822.345 5.9070443e-05    79.732483     -6.16559    -0.375168    -6.540758    26.322633            0            0            0    26.322633            0            0    72.845914            0    79.732483 
   31000    8.3517206 0.0032009594     47.21926    226.30119          600          600          600 0.00041048093    30589.457 5.9070443e-05    55.570981   -6.3424679  -0.79418957   -7.1366575    15.488378            0            0            0    15.488378            0            0    65.654446            0    55.570981 
   32000    10.360616 0.0071943416    73.416621    351.85364          600          600          600 -0.0083120154    32177.246 5.9070443e-05    83.777237   -7.5723158  -0.36894709   -7.9412629    18.301879            0            0            0    18.301879            0            0    106.44041            0    83.777237 
   33000    17.521193  0.014572439    62.244871    298.31234          600          600          600  0.013850612    32149.129 5.9070443e-05    79.766063  -0.66691336  -0.37669462    -1.043608    18.564801            0            0            0    18.564801            0            0    125.67126            0    79.766063 
   34000     21.80629 0.0028704071    63.788947    305.71243          600          600          600 0.0036372076    34424.406 5.9070443e-05    85.595237   -5.9603088  -0.27544672   -6.2357555    28.042045            0            0            0    28.042045            0            0    94.637417            0    85.595237 
   35000    17.211295  0.011960237    63.180899    302.79832          600          600          600 0.0096976589    33670.258 5.9070443e-05    80.392194   -3.0978745  -0.27979422   -3.3776687    20.588964            0            0            0    20.588964            0            0     118.0686            0    80.392194 
   36000    16.076372  0.009159034    61.008571     292.3873          600          600          600 0.0023774781    30540.678 5.9070443e-05    77.084943   -4.3944193  -0.36646489   -4.7608842    20.837256            0            0            0    20.837256            0            0    105.93717            0    77.084943 
   37000    19.645328  -0.03168824     74.49922    357.04206          600          600          600 -0.028236515    29772.598 5.9070443e-05    94.144547   -4.7742782  0.086824528   -4.6874537    24.332782            0            0            0    24.332782            0            0   -5.6777965            0    94.144547 
   38000    14.842209 5.5975449e-06    51.529681    246.95914          600          600          600 -0.021740358    30975.076 5.9070443e-05     66.37189   -4.4360751  -0.22943399   -4.6655091    19.507718            0            0            0    19.507718            0            0    66.389523            0     66.37189 
   39000    18.042573 -0.0085950003    66.053201      316.564          600          600          600 -0.020893953    31453.584 5.9070443e-05    84.095774   -3.3270312  -0.48668578    -3.813717     21.85629            0            0            0     21.85629            0            0    57.020333            0    84.095774 
   40000    14.653307  0.014094292    57.067112    273.49762          600          600          600 0.0069768732    31037.421 5.9070443e-05    71.720418   -3.1622233  -0.51975635   -3.6819796    18.335286            0            0            0    18.335286            0            0    116.11939            0    71.720418 
   41000    16.644509 0.0066887249    54.595599    261.65275          600          600          600  0.013998512     33454.87 5.9070443e-05    71.240109   -3.5721247  -0.32347503   -3.8955998    20.540109            0            0            0    20.540109            0            0    92.310518            0    71.240109 
   42000    11.039369 0.0027462055    62.312279     298.6354          600          600          600  0.021132371     32419.24 5.9070443e-05    73.351647   -5.1870674  -0.39202594   -5.5790934    16.618462            0            0            0    16.618462            0            0    82.002575            0    73.351647 
   43000    9.8306836 0.0029521966    66.369337     318.0791          600          600          600 0.0043124068    31139.039 5.9070443e-05     76.20002   -6.9718759  -0.37040916   -7.3422851    17.172969            0            0            0    17.172969            0            0    85.499849            0     76.20002 
   44000    15.397469 -0.033969061    56.705395    271.76407          600          600          600 -0.044493276     31605.51 5.9070443e-05    72.102864   -5.4706975  -0.19395546    -5.664653    21.062122            0            0            0    21.062122            0            0    -34.90438            0    72.102864 
   45000    17.235667 0.0084590036    56.501535    270.78706          600          600          600 0.0058355371     32642.53 5.9070443e-05    73.737202   -5.9788065   -0.5264252   -6.5052317    23.740899            0            0            0    23.740899            0            0    100.38423            0    73.737202 
   46000    17.911435 0.0040949184    58.575523    280.72677          600          600          600 0.0016118698    32312.345 5.9070443e-05    76.486958   -5.5350338 -0.043539146    -5.578573    23.490008            0            0            0    23.490008            0            0    89.386518            0    76.486958 
   47000    20.175521  0.010029435    63.566797    304.64776          600          600          600 -0.00049635336    32006.105 5.9070443e-05    83.742319   -4.2608058  0.056526792    -4.204279      24.3798            0            0            0      24.3798            0            0    115.33643            0    83.742319 
   48000    14.206261  0.010793213    59.347059    284.42441          600          600          600   0.01031988     31845.96 5.9070443e-05     73.55332   -4.7779434  -0.42274968   -5.2006931    19.406954            0            0            0    19.406954            0            0    107.55343            0     73.55332 
   49000    11.360037 1.3885696e-05    62.592718    299.97942          600          600          600 0.0032931198    31555.813 5.9070443e-05    73.952755   -4.7767814  -0.21857892   -4.9953603    16.355397            0            0            0    16.355397            0            0    73.996496            0    73.952755 
   50000    18.097555 -0.016308063    64.653455    309.85564          600          600          600 0.00049098538    29553.378 5.9070443e-05    82.751011   -7.1123885  0.010301661   -7.1020869    25.199642            0            0            0    25.199642            0            0    31.378354            0    82.751011 
   51000    14.964366 0.0027522717    62.984026    301.85479          600          600          600 -0.012629086    30770.107 5.9070443e-05    77.948392   -5.1908274   0.19088183   -4.9999456    19.964312            0            0            0    19.964312            0            0    86.618429            0    77.948392 
   52000    16.343189 -0.013874792    64.929978    311.18089          600          600          600 -0.026873195    32931.629 5.9070443e-05    81.273167   -5.2743536  -0.12722722   -5.4015808    21.744769            0            0            0    21.744769            0            0    37.565652            0    81.273167 
   53000    13.806998 -0.012285297    57.047072    273.40158          600          600          600 0.00062518246    33050.218 5.9070443e-05    70.854071   -4.1156312  -0.53061139   -4.6462425    18.453241            0            0            0    18.453241            0            0    32.153685            0    70.854071 
   54000    21.107012  -0.02443044    57.658868    276.33365          600          600          600  -0.02418007    36131.006 5.9070443e-05    78.765881   -4.4102636  -0.39926288   -4.8095265    25.916539            0            0            0    25.916539            0            0    1.8066126            0    78.765881 
   55000    17.060357  0.017446857      63.0202    302.02816          600          600          600 -0.00049678159    36372.895 5.9070443e-05    80.080557   -3.4332175  -0.37405657   -3.8072741    20.867632            0            0            0    20.867632            0            0    135.04057            0    80.080557 
   56000    18.600741 -0.0059931165    66.654953    319.44793          600          600          600 -0.020419276    36287.301 5.9070443e-05    85.255693   -4.9973353  -0.47378075    -5.471116    24.071857            0            0            0    24.071857            0            0    66.376547            0    85.255693 
   57000     13.98396  0.015385979    67.472243    323.36485          600          600          600  0.010936663    34428.079 5.9070443e-05    81.456203   -3.0889315  -0.27594977   -3.3648813    17.348842            0            0            0    17.348842            0            0    129.92417            0    81.456203 
   58000     21.94634 -0.010626732    73.551048    352.49789          600          600          600 -0.004313427    38514.835 5.9070443e-05    95.497388   -1.2072719  -0.44382483   -1.6510967    23.597436            0            0            0    23.597436            0            0    62.021709            0    95.497388 
   59000    17.957634  0.039007403    71.462771     342.4897          600          600          600  0.040516442    37578.655 5.9070443e-05    89.420405   -4.0216484  -0.42937736   -4.4510257     22.40866            0            0            0     22.40866            0            0    212.29912            0    89.420405 
   60000    14.356713 0.0064155724    63.314567    303.43893          600          600          600   0.01974314    36795.691 5.9070443e-05     77.67128   -6.0723153  -0.37331002   -6.4456253    20.802338            0            0            0    20.802338            0            0    97.881221            0     77.67128 
   61000    17.379609 -0.011537913    81.849006    392.26636          600          600          600 -0.019922979    37042.666 5.9070443e-05    99.228615   -3.0687348  -0.25279401   -3.3215288    20.701138            0            0            0    20.701138            0            0    62.882591            0    99.228615 
   62000    14.325642 -0.0080263317     56.60846     271.2995          600          600          600 -0.00052661853    37767.129 5.9070443e-05    70.934103   -4.9286677  -0.61349795   -5.5421657    19.867808            0            0            0    19.867808            0            0    45.650047            0    70.934103 
   63000    13.018715  0.016424656    67.406907    323.05172          600          600          600 0.00013436786    38397.774 5.9070443e-05    80.425622   -5.3723183   -0.2857759   -5.6580942    18.676809            0            0            0    18.676809            0            0    132.16556            0    80.425622 
   64000    17.950016 -0.011002621    59.753719    286.37335          600          600          600 -0.018275776    37946.513 5.9070443e-05    77.703735   -4.6172599  -0.36797647   -4.9852364    22.935253            0            0            0    22.935253            0            0    43.043956            0    77.703735 
   65000    13.671832 -0.0035341229    58.658588    281.12487          600          600          600 -0.012632746    38660.743 5.9070443e-05     72.33042   -2.9240486  -0.31838825   -3.2424369    16.914269            0            0            0    16.914269            0            0    61.197443            0     72.33042 
   66000    16.231472 -0.0033720173    64.455363    308.90627          600          600          600 0.0023066464    38278.976 5.9070443e-05    80.686835   -5.3339996  -0.15743144    -5.491431    21.722903            0            0            0    21.722903            0            0    70.064514            0    80.686835 
   67000    18.337093 0.0067426566    58.936887    282.45863          600          600          600 0.0092808231    37149.953 5.9070443e-05     77.27398    -1.207804 -0.081790105   -1.2895941    19.626687            0            0            0    19.626687            0            0    98.514282            0     77.27398 
   68000    15.285939   0.02435062    66.523458    318.81774          600          600          600  0.034442085    37288.337 5.9070443e-05    81.809398   -4.1252582  -0.30081512   -4.4260733    19.712013            0            0            0    19.712013            0            0    158.51722            0    81.809398 
   69000    15.268608  0.027972295    67.312842    322.60091          600          600          600   0.03124761     37755.91 5.9070443e-05    82.581449   -1.6273529 -0.086230661   -1.7135835    16.982191            0            0            0    16.982191            0            0    170.69805            0    82.581449 
   70000    20.060365 0.0079640276     63.04067    302.12626          600          600          600 -0.0033832936    35976.361 5.9070443e-05    83.101035   -4.6876879   -0.2330921   -4.9207801    24.981145            0            0            0    24.981145            0            0    108.18882            0    83.101035 
   71000    14.241733 0.0088779949    61.557942     295.0202          600          600          600 0.0021354138     40007.86 5.9070443e-05    75.799675   -3.6457589  -0.31592132   -3.9616802    18.203413            0            0            0    18.203413            0            0    103.76659            0    75.799675 
   72000    14.617196 -0.014095108    59.540057    285.34936          600          600          600 -0.001990335    38592.089 5.9070443e-05    74.157253   -6.7398894  -0.16071247   -6.9006019    21.517797            0            0            0    21.517797            0            0    29.755711            0    74.157253 
   73000    17.403394 -0.0094770514     66.31981    317.84174          600          600          600 -0.016464166     38881.87 5.9070443e-05    83.723205   -3.5336716  -0.27204474   -3.8057163    21.209111            0            0            0    21.209111            0            0    53.869181            0    83.723205 
   74000    19.888424 -0.0044926721    67.384474    322.94421          600          600          600 -0.0027401348    39376.111 5.9070443e-05    87.272897   -5.6895051 -0.044540701   -5.7340458    25.622469            0            0            0    25.622469            0            0    73.120358            0    87.272897 
   75000     17.38138  0.015916826    62.692929    300.45969          600          600          600  0.015283374    38544.566 5.9070443e-05    80.074309   -3.2859535  -0.39095224   -3.6769057    21.058286            0            0            0    21.058286            0            0    130.21451            0    80.074309 
   76000    18.703389 -0.017867418     60.48216    289.86445          600          600          600 -0.029806871    36935.996 5.9070443e-05    79.185549   -6.0140098  -0.45775494   -6.4717648    25.175153            0            0            0    25.175153            0            0     22.90071            0    79.185549 
   77000    14.018617  0.018008353    54.559932    261.48181          600          600          600 -0.0021230378    35423.369 5.9070443e-05    68.578548   -4.5449868  -0.37954918    -4.924536    18.943153            0            0            0    18.943153            0            0    125.30735            0    68.578548 
   78000    15.881329 -0.012841343    48.601231    232.92437          600          600          600 -0.0044863116    36265.966 5.9070443e-05     64.48256   -5.9171215  -0.34942689   -6.2665484    22.147878            0            0            0    22.147878            0            0     24.03055            0     64.48256 
   79000    16.299526 -0.0061935771     80.57953    386.18232          600          600          600 -0.0085878303     34265.23 5.9070443e-05    96.879056   -4.1608786  -0.17191355   -4.3327922    20.632318            0            0            0    20.632318            0            0    77.368431            0    96.879056 
   80000    18.144216   0.01355906    64.901754    311.04562          600          600          600  0.010490823    33685.942 5.9070443e-05     83.04597   -5.6300029 -0.014534641   -5.6445376    23.788753            0            0            0    23.788753            0            0    125.75889            0     83.04597 
   81000    17.765539 -0.0076824472    54.608067     261.7125          600          600          600 -0.0086240865    33844.411 5.9070443e-05    72.373606   -4.5553048  -0.79453304   -5.3498379    23.115377            0            0            0    23.115377            0            0    48.172834            0    72.373606 
   82000    12.238612 -0.0044280584     64.08522    307.13233          600          600          600 -0.0062693161    34569.959 5.9070443e-05    76.323833   -5.9596595  -0.39489091   -6.3545504    18.593163            0            0            0    18.593163            0            0    62.374836            0    76.323833 
   83000    16.939689  0.014803816    70.968813    340.12237          600          600          600 -0.0017095876    33623.562 5.9070443e-05    87.908502   -5.8638768  -0.30344381   -6.1673206     23.10701            0            0            0     23.10701            0            0    134.54257            0    87.908502 
   84000    10.633514 0.0036609306    69.051095    330.93159          600          600          600  0.005396135    35958.163 5.9070443e-05    79.684609   -6.0174971  -0.33359597   -6.3510931    16.984607            0            0            0    16.984607            0            0    91.217047            0    79.684609 
   85000    18.545926 0.0052142871    83.994588     402.5492          600          600          600  0.019201719    36568.559 5.9070443e-05    102.54051   -5.6612012  -0.25366847   -5.9148697    24.460795            0            0            0    24.460795            0            0    118.96624            0    102.54051 
   86000    18.578528  0.009875555    59.924204    287.19041          600          600          600  0.030515581    36367.533 5.9070443e-05    78.502732   -3.9571736  -0.19221801   -4.1493916     22.72792            0            0            0     22.72792            0            0     109.6121            0    78.502732 
   87000    23.663199 -0.011889049    66.260609    317.55802          600          600          600 -0.0073901897     36167.77 5.9070443e-05    89.923808   -2.3234388  -0.17192311   -2.4953619    26.158561            0            0            0    26.158561            0            0    52.471659            0    89.923808 
   88000    11.702817 -0.0014442189    57.955019    277.75297          600          600          600 0.0065567443    32765.184 5.9070443e-05    69.657836   -6.3517053  -0.36910255   -6.7208079    18.423625            0            0            0    18.423625            0            0    65.108346            0    69.657836 
   89000    19.373484 -0.0061238636    69.186732    331.58164          600          600          600 -0.006707616    32120.324 5.9070443e-05    88.560216   -4.2641908 -0.084935949   -4.3491268    23.722611            0            0            0    23.722611            0            0    69.269198            0    88.560216 
   90000    16.658445 -0.023607984    65.105367    312.02145          600          600          600 -0.036826717    32591.294 5.9070443e-05    81.763813   -6.0863482  -0.31913318   -6.4054814    23.063927            0            0            0    23.063927            0            0    7.3953955            0    81.763813 
   91000    10.113652 0.0057940757    71.020773     340.3714          600          600          600 0.0018963439    34590.201 5.9070443e-05    81.134425   -2.9667932  -0.30028112   -3.2670743    13.380726            0            0            0    13.380726            0            0    99.386566            0    81.134425 
   92000    13.978309 0.0066506941    60.119431    288.12604          600          600          600 0.0048418744    34934.484 5.9070443e-05     74.09774   -4.8630899  -0.27899709    -5.142087    19.120396            0            0            0    19.120396            0            0    95.048347            0     74.09774 
   93000    14.966461 0.0059456282    65.887462    315.76969          600          600          600 0.0064071629    34426.949 5.9070443e-05    80.853923   -5.6440361   -0.4877701   -6.1318062    21.098267            0            0            0    21.098267            0            0    99.583475            0    80.853923 
   94000    19.998601 0.0094479671    58.637348    281.02308          600          600          600  0.009460193    33564.904 5.9070443e-05    78.635949    -3.705449   -0.4771395   -4.1825885    24.181189            0            0            0    24.181189            0            0    108.39835            0    78.635949 
   95000    24.085174  0.013264951    63.684753    305.21307          600          600          600  0.020008195    34271.389 5.9070443e-05    87.769927   -4.6197676  -0.52339901   -5.1431666     29.22834            0            0            0     29.22834            0            0    129.55636            0    87.769927 
   96000    17.200354 -0.0032687237    59.570348    285.49453          600          600          600  0.030283056    33466.082 5.9070443e-05    76.770702   -9.2872083  -0.17989776   -9.4671061     26.66746            0            0            0     26.66746            0            0     66.47377            0    76.770702 
   97000    19.874098   0.01324809    60.209143      288.556          600          600          600  0.031640716    32892.374 5.9070443e-05    80.083241   -4.2923662    -0.225778   -4.5181442    24.392242            0            0            0    24.392242            0            0    121.81656            0    80.083241 
   98000    22.529536 -0.0086695963    60.009688     287.6001          600          600          600 0.0020625145    34192.881 5.9070443e-05    82.539224   -4.5643218  -0.49532045   -5.0596423    27.589178            0            0            0    27.589178            0            0    55.228795            0    82.539224 
   99000    20.718508 -0.008729142    73.413871    351.84046          600          600          600 -0.015273062    34979.643 5.9070443e-05    94.132379    -3.205289   -0.1822973   -3.3875863    24.106094            0            0            0    24.106094            0            0    66.634373            0    94.132379 
  100000    18.372938  0.012669691    69.738364    334.22537          600          600          600  0.017598249    30118.728 5.9070443e-05    88.111303   -7.1338144  -0.27552457    -7.409339    25.782277            0            0            0    25.782277            0            0    128.02258            0    88.111303 
  101000    24.365182 0.0039727898    65.706848    314.90408          600          600          600  0.018563382    32584.964 5.9070443e-05     90.07203   -3.2165437  -0.24957318   -3.4661169    27.831299            0            0            0    27.831299            0            0    102.58687            0     90.07203 
  102000    21.044342 -0.014067329     66.25743    317.54278          600          600          600  0.016642761     34325.24 5.9070443e-05    87.301773   -5.6381196  -0.41030329   -6.0484228    27.092765            0            0            0    27.092765            0            0     42.98774            0    87.301773 
  103000     23.29792 0.0022041561    75.898061    363.74609          600          600          600 -0.0088449274    36146.887 5.9070443e-05    99.195981   -1.0489027  -0.39643213   -1.4453348    24.743255            0            0            0    24.743255            0            0    106.13938            0    99.195981 
  104000    16.105847 0.0019417343    67.780647    324.84289          600          600          600 0.00071846876    33813.307 5.9070443e-05    83.886493   -4.7263824 -0.088971433   -4.8153538    20.921201            0            0            0    20.921201            0            0    90.003225            0    83.886493 
  105000    15.738256 0.0046974742    62.885973    301.38487          600          600          600 -0.0039645759    33666.744 5.9070443e-05    78.624229   -4.9970858  0.043485432   -4.9536004    20.691856            0            0            0    20.691856            0            0    93.421923            0    78.624229 
  106000     17.95061 -0.019797255    65.945107    316.04595          600          600          600 -0.025133175    35209.859 5.9070443e-05    83.895717   -4.8722768  -0.11279294   -4.9850697     22.93568            0            0            0     22.93568            0            0    21.531622            0    83.895717 
  107000    20.073861 -0.0094041573    71.634563    343.31302          600          600          600 -0.00079431836    36268.788 5.9070443e-05    91.708423   -1.6736875   -0.2502363   -1.9239238    21.997784            0            0            0    21.997784            0            0    62.084026            0    91.708423 
  108000    18.390373  0.012009215    67.677151    324.34688          600          600          600  0.023502414    35478.502 5.9070443e-05    86.067525  -0.82870085  -0.12279333  -0.95149418    19.341867            0            0            0    19.341867            0            0    123.89822            0    86.067525 
  109000    18.073703 -0.0098385863    58.819545    281.89626          600          600          600 -0.0030283182    36093.385 5.9070443e-05    76.893248   -4.8441462  -0.29207667   -5.1362229    23.209925            0            0            0    23.209925            0            0    45.900339            0    76.893248 
  110000    18.653388  -0.01169159    70.834127    339.47688          600          600          600 -0.016411539     37010.96 5.9070443e-05    89.487515   -3.7932365 -0.094618144   -3.8878547    22.541242            0            0            0    22.541242            0            0    52.657388            0    89.487515 
  111000    12.941241 -0.0020624073    58.065967     278.2847          600          600          600 0.0067677682    35184.162 5.9070443e-05    71.007208   -3.6868607  -0.15555054   -3.8424112    16.783652            0            0            0    16.783652            0            0    64.510339            0    71.007208 
  112000    14.789374 0.0032937891    64.142195    307.40539          600          600          600 -0.021707518    34776.333 5.9070443e-05    78.931569   -4.0799398  -0.28207464   -4.3620145    19.151388            0            0            0    19.151388            0            0     89.30746            0    78.931569 
  113000    19.558519 0.0065427324    68.416401    327.88978          600          600          600 0.0035220841     31470.34 5.9070443e-05    87.974921   -3.3237136  -0.19869397   -3.5224076    23.080927            0            0            0    23.080927            0            0    108.58543            0    87.974921 
  114000    15.417918  0.011536603    61.876147    296.54522          600          600          600   0.01619878    31570.777 5.9070443e-05    77.294066   -5.9621428   -0.2269106   -6.1890534    21.606972            0            0            0    21.606972            0            0    113.63596            0    77.294066 
  115000    17.902164 0.0038833525    62.826871    301.10162          600          600          600 0.00070749373    31624.574 5.9070443e-05    80.729035   -2.8169871  -0.14515753   -2.9621446    20.864309            0            0            0    20.864309            0            0    92.962133            0    80.729035 
  116000    15.806933 -0.0036280024    69.270919    331.98511          600          600          600 0.0018223077    32354.969 5.9070443e-05    85.077853   -5.4927702   0.13941155   -5.3533586    21.160292            0            0            0    21.160292            0            0    73.649143            0    85.077853 
  117000    13.720608 -0.011399116    61.676927    295.59044          600          600          600 -0.019758003    32217.533 5.9070443e-05    75.397535   -6.1302466 -0.097045146   -6.2272918      19.9479            0            0            0      19.9479            0            0    39.488743            0    75.397535 
  118000    18.159948 0.0061957568    73.131663    350.48796          600          600          600 0.0020641687     34266.63 5.9070443e-05    91.291611   -4.7561366  -0.12726679   -4.8834033    23.043351            0            0            0    23.043351            0            0     110.8091            0    91.291611 
  119000    15.347454 -0.0020859728    60.845459    291.60558          600          600          600 0.0046882599    33397.863 5.9070443e-05    76.192913   -3.3048915   0.15752983   -3.1473616    18.494816            0            0            0    18.494816            0            0     69.62181            0    76.192913 
  120000    23.757897 -0.010889112    56.285581    269.75209          600          600          600 -0.014317674    33345.555 5.9070443e-05    80.043478   -4.9495389 -0.063478382   -5.0130172    28.770914            0            0            0    28.770914            0            0    45.741267            0    80.043478 
  121000    17.372098 0.0052617372    71.951984    344.83428          600          600          600  0.021306845    31535.883 5.9070443e-05    89.324082   -3.7472627    -0.321939   -4.0692017      21.4413            0            0            0      21.4413            0            0    105.89928            0    89.324082 
  122000    7.6132043  0.010650375    55.469757     265.8422          600          600          600  0.014914167    31082.963 5.9070443e-05    63.082961   -5.0488969  -0.23698979   -5.2858867    12.899091            0            0            0    12.899091            0            0    96.633117            0    63.082961 
  123000    15.237046  0.010342742    59.532166    285.31154          600          600          600 -0.0059162898    33043.448 5.9070443e-05    74.769212   -2.6441398  -0.42434517    -3.068485    18.305531            0            0            0    18.305531            0            0    107.35028            0    74.769212 
  124000    12.705306 -0.023515955     59.31794    284.28485          600          600          600 -0.020784198    32104.835 5.9070443e-05    72.023246   -4.8291745  -0.39496232   -5.2241368    17.929443            0            0            0    17.929443            0            0   -2.0552694            0    72.023246 
  125000    14.335983 -0.0057227197    62.056836    297.41118          600          600          600  -0.01558589    31490.187 5.9070443e-05     76.39282   -7.0909624   0.21330855   -6.8776539    21.213637            0            0            0    21.213637            0            0     58.36546            0     76.39282 
  126000    23.666305 -0.022746512    70.042586    335.68337          600          600          600 -0.020420902    30685.239 5.9070443e-05    93.708891   -5.8193331    0.3093571    -5.509976    29.176281            0            0            0    29.176281            0            0    22.054229            0    93.708891 
  127000    16.603047 -0.0078734012    58.876522    282.16933          600          600          600 -0.0058673367     32475.97 5.9070443e-05    75.479569   -5.2473014  -0.13836308   -5.3856645    21.988712            0            0            0    21.988712            0            0    50.677265            0    75.479569 
  128000    13.589578  0.004317477    59.305365    284.22458          600          600          600 -0.0083358053    35130.822 5.9070443e-05    72.894943   -4.1499491  -0.45276208   -4.6027112    18.192289            0            0            0    18.192289            0            0    86.495593            0    72.894943 
  129000    19.285541 0.0023155011    69.569487    333.41602          600          600          600 0.0073006754    33535.652 5.9070443e-05    88.855027   -5.6652183 -0.071023393   -5.7362417    25.021782            0            0            0    25.021782            0            0    96.149177            0    88.855027 
  130000    19.445523  0.015063009    67.833978    325.09848          600          600          600 0.0094403925    32264.373 5.9070443e-05    87.279501   -2.8866797  -0.21806331    -3.104743    22.550266            0            0            0    22.550266            0            0    134.73007            0    87.279501 
  131000    23.291303 -0.0038460091    73.185787    350.74735          600          600          600 -0.00061823976    31499.884 5.9070443e-05    96.477089   -4.7689979  -0.20380228   -4.9728002    28.264103            0            0            0    28.264103            0            0    84.361628            0    96.477089 
  132000    14.106463 0.0047196312    63.083089    302.32956          600          600          600  0.025460348    31657.753 5.9070443e-05    77.189552   -4.6141621 -0.082565954   -4.6967281    18.803191            0            0            0    18.803191            0            0    92.057044            0    77.189552 
  133000    20.318928 -0.0060531144    61.228194    293.43986          600          600          600 0.0048254118    34261.591 5.9070443e-05    81.547122   -3.9507494    -0.158364   -4.1091134    24.428041            0            0            0    24.428041            0            0    62.478974            0    81.547122 
  134000    13.154886 -0.012877675    58.911524    282.33708          600          600          600 -0.027159985    33564.904 5.9070443e-05     72.06641   -4.6064382 -0.026890134   -4.6333283    17.788215            0            0            0    17.788215            0            0    31.499951            0     72.06641 
  135000    16.870317 0.0002611705    66.093334    316.75634          600          600          600 -0.0087147773    33154.457 5.9070443e-05    82.963651   -4.1084695  -0.14058265   -4.2490521    21.119369            0            0            0    21.119369            0            0    83.786375            0    82.963651 
  136000    14.136947 0.0035953501    63.082561    302.32703          600          600          600 -0.0053321497     33984.54 5.9070443e-05    77.219509   -3.9630356  -0.48294341    -4.445979    18.582926            0            0            0    18.582926            0            0    88.545359            0    77.219509 
  137000    18.549654 -0.0006279582    72.897384    349.36517          600          600          600 -0.037696689    36060.802 5.9070443e-05    91.447038   -4.2145887  -0.47690271   -4.6914914    23.241145            0            0            0    23.241145            0            0    89.468883            0    91.447038 
  138000     16.12325 0.0051330656    67.942002    325.61619          600          600          600 -4.4088713e-05    34955.446 5.9070443e-05    84.065252   -6.6949178 -0.049165867   -6.7440836    22.867334            0            0            0    22.867334            0            0    100.23512            0    84.065252 
  139000    13.958456 -0.0025098118    63.248503    303.12231          600          600          600 -0.00077179144    33760.778 5.9070443e-05    77.206959   -6.3217772   -0.2077189   -6.5294961    20.487952            0            0            0    20.487952            0            0    69.300704            0    77.206959 
  140000    9.2313523 0.00034546189    66.971254    320.96383          600          600          600 0.00039891379    34339.572 5.9070443e-05    76.202606   -3.8740495  -0.30977903   -4.1838285    13.415181            0            0            0    13.415181            0            0    77.290859            0    76.202606 
  141000    11.459718 -0.011777964    58.419931    279.98109          600          600          600 -0.013532313    35403.336 5.9070443e-05    69.879649   -4.5283562  -0.19666623   -4.7250224     16.18474            0            0            0     16.18474            0            0    32.777432            0    69.879649 
  142000    18.609674 -0.0023867117    53.829159    257.97954          600          600          600   0.01255023    35283.314 5.9070443e-05    72.438834   0.59052679  -0.19652374   0.39400306    18.215671            0            0            0    18.215671            0            0    64.920362            0    72.438834 
  143000    23.719496 -0.007136042    72.598629    347.93337          600          600          600 -0.0040228395    36024.255 5.9070443e-05    96.318125   -5.0908301  -0.11422087   -5.2050509    28.924547            0            0            0    28.924547            0            0    73.838605            0    96.318125 
  144000    16.866589 0.0017230213    69.238596     331.8302          600          600          600  0.004731716    34935.648 5.9070443e-05    86.105185    -3.817151  -0.17372873   -3.9908797    20.857469            0            0            0    20.857469            0            0    91.532941            0    86.105185 
  145000    7.6975101  0.016861839    57.682089    276.44494          600          600          600   0.02113069     30402.54 5.9070443e-05    65.379599   -6.9959816  -0.20647217   -7.2024537    14.899964            0            0            0    14.899964            0            0    118.49673            0    65.379599 
  146000    17.254271 0.0016508741     60.73279     291.0656          600          600          600 -0.023513458    30386.021 5.9070443e-05    77.987061   -6.5995758  -0.18737183   -6.7869476    24.041219            0            0            0    24.041219            0            0    83.187542            0    77.987061 
  147000    18.799479 0.0029943736     61.55008    294.98252          600          600          600  0.016373542    30626.759 5.9070443e-05    80.349559   -6.3788816  -0.11480215   -6.4936838    25.293163            0            0            0    25.293163            0            0     89.78225            0    80.349559 
  148000     20.20215 0.0067105175     63.78952    305.71517          600          600          600  0.013317547    29899.942 5.9070443e-05     83.99167   -4.4109728  -0.18768304   -4.5986559    24.800805            0            0            0    24.800805            0            0    105.13073            0     83.99167 
  149000    11.109847 0.0069551341     51.97377    249.08747          600          600          600  0.010823854    31197.406 5.9070443e-05    63.083617   -4.3600248  -0.31646796   -4.6764927     15.78634            0            0            0     15.78634            0            0    84.993252            0    63.083617 
  150000    23.883583 -0.023481298    65.319708    313.04869          600          600          600 -0.040128044    31754.101 5.9070443e-05    89.203291    -3.674246  -0.46408739   -4.1383334    28.021917            0            0            0    28.021917            0            0    15.233951            0    89.203291 
  151000    22.977275  0.033458866    58.460914     280.1775          600          600          600  0.029738426    34335.917 5.9070443e-05    81.438189  -0.58784949  -0.38085443  -0.96870392    23.945979            0            0            0    23.945979            0            0    186.83825            0    81.438189 
  152000    13.385291  0.012596365     76.74827    367.82077          600          600          600 -0.014290867    32836.238 5.9070443e-05    90.133561   -3.8107675   -0.2692201   -4.0799876    17.465279            0            0            0    17.465279            0            0    129.81385            0    90.133561 
  153000    9.8062007 -0.027780226    66.823536    320.25588          600          600          600 -0.026657908    33717.896 5.9070443e-05    76.629736   -7.1190232  -0.20202078   -7.3210439    17.127245            0            0            0    17.127245            0            0   -10.881821            0    76.629736 
  154000    14.489187 -0.0083742232    60.297209    288.97806          600          600          600 -0.0058662462    32724.538 5.9070443e-05    74.786396   -5.7782076  0.064618749   -5.7135889    20.202776            0            0            0    20.202776            0            0    48.406434            0    74.786396 
  155000    8.3525263 -0.0063266769    60.776914    291.27708          600          600          600 -0.012640369    32976.162 5.9070443e-05    69.129441   -5.5909666  -0.24925368   -5.8402203    14.192747            0            0            0    14.192747            0            0    49.199533            0    69.129441 
  156000    15.893536 -0.0076285832    57.146048    273.87593          600          600          600 -0.0098827997     34808.08 5.9070443e-05    73.039584   -5.5454446  -0.15754856   -5.7029932    21.596529            0            0            0    21.596529            0            0     49.00849            0    73.039584 
  157000    14.675738  0.030142619    60.499498    289.94754          600          600          600  0.031318942    31912.107 5.9070443e-05    75.175236   -2.0709179 -0.082282479   -2.1532004    16.828938            0            0            0    16.828938            0            0    170.12866            0    75.175236 
  158000    12.493201 0.0041823755    66.882004    320.53609          600          600          600  0.011930462    33070.022 5.9070443e-05    79.375205   -2.0994022  -0.13665592   -2.2360581    14.729259            0            0            0    14.729259            0            0    92.550267            0    79.375205 
  159000    5.1676313  0.019223759    67.107344    321.61605          600          600          600  0.025121789      29525.5 5.9070443e-05    72.274975   -7.7347192  -0.25878737   -7.9935066    13.161138            0            0            0    13.161138            0            0    132.83248            0    72.274975 
  160000    18.824402   -0.0146701    58.759453    281.60827          600          600          600  -0.03187639    33588.558 5.9070443e-05    77.583855   -1.6281668  -0.15456611   -1.7827329    20.607135            0            0            0    20.607135            0            0     31.37101            0    77.583855 
  161000    14.989599 -0.0035027223    59.338254    284.38221          600          600          600  0.011728421    31405.069 5.9070443e-05    74.327853   -5.8987109  -0.11706825   -6.0157791    21.005378            0            0            0    21.005378            0            0    63.293792            0    74.327853 
  162000    14.920648 0.0044632705    69.318317    332.21227          600          600          600 -0.009144489    30562.264 5.9070443e-05    84.238965   -1.9585413  -0.28056684   -2.2391081    17.159756            0            0            0    17.159756            0            0    98.298885            0    84.238965 
  163000    20.511582    0.0107714    62.837574    301.15291          600          600          600 0.0035392521    33335.485 5.9070443e-05    83.349156   -2.3629444  -0.57683411   -2.9397785    23.451361            0            0            0    23.451361            0            0    117.28056            0    83.349156 
  164000    14.530916 -0.0074572084    67.646178    324.19844          600          600          600 -0.027681248    31446.745 5.9070443e-05    82.177094   -4.5703739  -0.31976224   -4.8901361    19.421052            0            0            0    19.421052            0            0    58.685855            0    82.177094 
  165000     22.61541  0.016411986    54.698518    262.14599          600          600          600  0.020061163    31252.731 5.9070443e-05    77.313928   -4.2579192  -0.31375499   -4.5716742    27.187084            0            0            0    27.187084            0            0    129.01396            0    77.313928 
  166000     13.85106  0.011553204    64.181586    307.59417          600          600          600 -0.004011591    32483.515 5.9070443e-05    78.032646    -4.438076   -0.2258291   -4.6639051    18.514965            0            0            0    18.514965            0            0    114.42684            0    78.032646 
  167000    17.974308 -0.011369079    63.309995    303.41702          600          600          600 -0.0026429909    30590.349 5.9070443e-05    81.284303   -6.4758157  -0.56243534    -7.038251     25.01256            0            0            0     25.01256            0            0     45.47013            0    81.284303 
  168000    18.241618 0.00063240616    60.068515    287.88203          600          600          600 0.0055387118    26891.046 5.9070443e-05    78.310133   -6.0033423  -0.39365328   -6.3969956    24.638614            0            0            0    24.638614            0            0      80.3023            0    78.310133 
  169000    12.442948 -0.005528775    62.578082    299.90928          600          600          600 -0.0069081461    26263.973 5.9070443e-05    75.021029   -9.5440766  -0.40839203   -9.9524686    22.395416            0            0            0    22.395416            0            0    57.604623            0    75.021029 
  170000    17.269428  0.027363858    60.295948    288.97202          600          600          600  0.034745518     28057.61 5.9070443e-05    77.565376   -3.9390024  -0.29183236   -4.2308348    21.500263            0            0            0    21.500263            0            0    163.76532            0    77.565376 
  171000    18.355256  0.012060586    70.263551    336.74236          600          600          600  0.029816125    29577.135 5.9070443e-05    88.618807   -4.7008773  -0.73404652   -5.4349238     23.79018            0            0            0     23.79018            0            0    126.61132            0    88.618807 
  172000    20.365053 -0.0094678731    65.200051    312.47523          600          600          600 0.00082084548    31319.474 5.9070443e-05    85.565104   -3.3837562  -0.55795883   -3.9417151    24.306769            0            0            0    24.306769            0            0    55.739993            0    85.565104 
  173000    18.367892 -0.026393337    65.307409    312.98975          600          600          600 0.0023777468    30735.157 5.9070443e-05    83.675301   -4.3834894  -0.15069276   -4.5341821    22.902075            0            0            0    22.902075            0            0   0.53263606            0    83.675301 
  174000    20.796174 -0.0061631701      71.1674    341.07411          600          600          600 -0.0086726146    31910.165 5.9070443e-05    91.963574  -0.61817753  -0.44715569   -1.0653332    21.861507            0            0            0    21.861507            0            0    72.548735            0    91.963574 
  175000    15.141115 0.00067176779     61.78991    296.13192          600          600          600 -0.012378052    32967.349 5.9070443e-05    76.931025   -3.9777467  -0.27624008   -4.2539868    19.395102            0            0            0    19.395102            0            0    79.047187            0    76.931025 
  176000    18.507461 0.0040129217    68.801805    329.73685          600          600          600  0.008101111    34113.345 5.9070443e-05    87.309266   -4.5367722  -0.20802396   -4.7447962    23.252257            0            0            0    23.252257            0            0    99.950525            0    87.309266 
  177000    11.613832 0.0081039609    62.055943     297.4069          600          600          600   0.01752967    34769.414 5.9070443e-05    73.669775   -7.1589859 -0.086158265   -7.2451442    18.858976            0            0            0    18.858976            0            0    99.198374            0    73.669775 
  178000    22.075954 0.00030242401    66.216824    317.34817          600          600          600  0.015611011    34441.083 5.9070443e-05    88.292777   -3.5774053  -0.51440726   -4.0918125    26.167766            0            0            0    26.167766            0            0    89.245455            0    88.292777 
  179000    18.829219 -0.006842535    65.456403    313.70381          600          600          600 -0.035717906    33173.074 5.9070443e-05    84.285622   -5.0029345  -0.17666498   -5.1795994    24.008818            0            0            0    24.008818            0            0    62.730689            0    84.285622 
  180000    13.638256  0.016744929    65.484051    313.83632          600          600          600  0.022766601    33004.446 5.9070443e-05    79.122307    -4.826685  -0.18292473   -5.0096098    18.647865            0            0            0    18.647865            0            0    131.87115            0    79.122307 
  181000    15.821629 0.0025933087    70.706233    338.86394          600          600          600 0.0020195715      32391.7 5.9070443e-05    86.527862   -4.1313851  -0.35219753   -4.4835826    20.305211            0            0            0    20.305211            0            0    94.697143            0    86.527862 
  182000    17.202265 -0.024327369    66.503509    318.72213          600          600          600 -0.023888366    34076.207 5.9070443e-05    83.705773   -5.4675214  -0.11441879   -5.5819401    22.784205            0            0            0    22.784205            0            0    7.0711936            0    83.705773 
  183000    22.507882 -0.0021759747    74.328924    356.22591          600          600          600 -0.021607982    35032.524 5.9070443e-05    96.836806   -2.8840447  -0.07733054   -2.9613752    25.469257            0            0            0    25.469257            0            0    89.982184            0    96.836806 
  184000    24.692742 -0.013470861    69.428727    332.74142          600          600          600 -0.030888864    35705.321 5.9070443e-05    94.121469   -4.3267197  -0.26498689   -4.5917066    29.284448            0            0            0    29.284448            0            0    51.686393            0    94.121469 
  185000    18.295011 -6.4260177e-05    63.725439    305.40806          600          600          600 -0.0025118894    35838.338 5.9070443e-05     82.02045   -4.1720021  -0.26448871   -4.4364908    22.731502            0            0            0    22.731502            0            0    81.818022            0     82.02045 
  186000    18.596859  0.011155905    60.010961     287.6062          600          600          600  0.027930956    35152.021 5.9070443e-05    78.607819   -2.9481445 -0.095257357   -3.0434018     21.64026            0            0            0     21.64026            0            0    113.75047            0    78.607819 
  187000    16.015987 -0.011497771    61.940898    296.85554          600          600          600 0.0047712734    37387.054 5.9070443e-05    77.956885   -4.7953282  -0.32591877   -5.1212469    21.137234            0            0            0    21.137234            0            0    41.737316            0    77.956885 
  188000    20.563447  -0.02051548    70.016833    335.55995          600          600          600 -0.021424486    40139.953 5.9070443e-05     90.58028    -4.112241  -0.17888553   -4.2911266    24.854574            0            0            0    24.854574            0            0    25.953677            0     90.58028 
  189000    17.216206 -0.0017694746    51.389375    246.28672          600          600          600  0.019279397    38746.099 5.9070443e-05    68.605582   -3.0571596  -0.49443967   -3.5515993    20.767806            0            0            0    20.767806            0            0    63.031492            0    68.605582 
  190000    21.947236 -0.0081112771    63.787798    305.70692          600          600          600 -0.0056668574    38011.165 5.9070443e-05    85.735033   -3.8759501  -0.20252539   -4.0784755    26.025711            0            0            0    26.025711            0            0    60.183388            0    85.735033 
  191000    17.821224 -0.021318451    61.133744     292.9872          600          600          600 -0.032327324    39504.059 5.9070443e-05    78.954967   -4.2176113  -0.18046977   -4.3980811    22.219305            0            0            0    22.219305            0            0    11.798896            0    78.954967 
  192000    22.288446 -0.0083924646    66.544828    318.92015          600          600          600 -0.015476939    37764.068 5.9070443e-05    88.833273   -1.7051995  -0.32065127   -2.0258508    24.314296            0            0            0    24.314296            0            0    62.395848            0    88.833273 
  193000    15.479112 -0.0015656489    65.067126    311.83818          600          600          600 -0.015493837    37640.707 5.9070443e-05    80.546238   -2.6260007  -0.24759087   -2.8735916    18.352704            0            0            0    18.352704            0            0    75.614227            0    80.546238 
  194000    17.040969 -0.015531322    63.906111    306.27394          600          600          600 -0.020948977    33852.606 5.9070443e-05     80.94708   -5.3576435  -0.36096074   -5.7186042    22.759573            0            0            0    22.759573            0            0    32.021265            0     80.94708 
  195000    14.826993 -0.0084588109    54.581215    261.58381          600          600          600 -0.0038469771    33567.053 5.9070443e-05    69.408208   -1.7728683  -0.19353693   -1.9664052    16.793398            0            0            0    16.793398            0            0    42.761782            0    69.408208 
  196000    10.965584 -0.0096044186    61.672116    295.56738          600          600          600 -0.0087448296    33927.087 5.9070443e-05      72.6377   -6.7148434  -0.25707852   -6.9719219    17.937506            0            0            0    17.937506            0            0    42.382452            0      72.6377 
  197000    14.050826 0.0015948798    63.656924     305.0797          600          600          600 0.0019789669     33644.06 5.9070443e-05     77.70775   -2.6726063  -0.28427211   -2.9568784    17.007704            0            0            0    17.007704            0            0    82.731842            0     77.70775 
  198000    20.323878 -0.014818528    64.272175    308.02832          600          600          600 -0.010799642    34298.293 5.9070443e-05    84.596053   -3.8105902  -0.34114163   -4.1517318     24.47561            0            0            0     24.47561            0            0    37.915636            0    84.596053 
  199000    19.644202 0.00081712916      64.6044    309.62054          600          600          600 -0.0056637919    36881.108 5.9070443e-05    84.248602   -1.6839118  -0.14698244   -1.8308942    21.475096            0            0            0    21.475096            0            0    86.822672            0    84.248602 
  200000    18.715778 -0.0049358444    69.865128    334.83289          600          600          600 -0.0052582884    37509.426 5.9070443e-05    88.580905   -3.5100015  -0.31996647    -3.829968    22.545746            0            0            0    22.545746            0            0    73.032312            0    88.580905 
  201000    18.110654 -0.00041820007    64.707064    310.11256          600          600          600 -0.013116273     39027.31 5.9070443e-05    82.817718   -4.7452477  -0.18789486   -4.9331425    23.043797            0            0            0    23.043797            0            0     81.50033            0    82.817718 
  202000    18.765694 0.0096871401    73.272584    351.16334          600          600          600 0.0093596598     35637.97 5.9070443e-05    92.038278   -4.5274968 -0.055624835   -4.5831216    23.348815            0            0            0    23.348815            0            0    122.55411            0    92.038278 
  203000     13.02562  0.014700407    64.749893    310.31782          600          600          600  0.014175995    34546.042 5.9070443e-05    77.775513   -4.6066287  -0.35259196   -4.9592206     17.98484            0            0            0     17.98484            0            0    124.08383            0    77.775513 
  204000    15.424579 -0.011373116    65.814071    315.41796          600          600          600 -0.0070503784    36107.367 5.9070443e-05     81.23865    -6.097242  -0.19416255   -6.2914045    21.715983            0            0            0    21.715983            0            0     45.41176            0     81.23865 
  205000    16.429616 0.0012204525     59.45571    284.94512          600          600          600 -0.014833573      34669.4 5.9070443e-05    75.885326   -4.5333294  -0.18699692   -4.7203263    21.149942            0            0            0    21.149942            0            0    79.729921            0    75.885326 
  206000    15.905798 0.0089392602    64.661298    309.89322          600          600          600 0.00032607313    34195.112 5.9070443e-05    80.567096    -3.680119  0.065347565   -3.6147714     19.52057            0            0            0     19.52057            0            0      108.727            0    80.567096 
  207000     12.13457 -0.0034936001    63.983783    306.64619          600          600          600 -0.015320866    36468.403 5.9070443e-05    76.118353    -3.401535  -0.19226884   -3.5938038    15.728374            0            0            0    15.728374            0            0    65.113029            0    76.118353 
  208000    9.4631801 -0.0019988414    73.279057    351.19436          600          600          600 0.0026695479    36791.818 5.9070443e-05    82.742237   -5.2303578  -0.16122954   -5.3915873    14.854767            0            0            0    14.854767            0            0     76.44561            0    82.742237 
  209000    14.909857  0.019085399    69.333934    332.28712          600          600          600  0.020662477    36725.455 5.9070443e-05    84.243792   -4.0953364  -0.24288945   -4.3382259    19.248083            0            0            0    19.248083            0            0    144.36544            0    84.243792 
  210000    17.652791 -0.0081510767    60.261939    288.80902          600          600          600 -0.016787869    33291.033 5.9070443e-05    77.914729   -2.3690158  -0.57615092   -2.9451667    20.597957            0            0            0    20.597957            0            0    52.237709            0    77.914729 
  211000    24.133745 -0.00050421558    63.747034    305.51156          600          600          600  0.018631806    33655.398 5.9070443e-05    87.880779   -4.6347139  -0.19305768   -4.8277716    28.961516            0            0            0    28.961516            0            0     86.29243            0    87.880779 
  212000    23.002839 -0.023756271    58.776307    281.68904          600          600          600 -0.032045153     32874.07 5.9070443e-05    81.779147   -4.6439218  -0.18058343   -4.8245052    27.827345            0            0            0    27.827345            0            0    6.9436036            0    81.779147 
  213000    14.781566 0.00031260601    60.240081    288.70427          600          600          600 -0.0070693257      32571.3 5.9070443e-05    75.021647    -6.839428  -0.15247941   -6.9919074    21.773473            0            0            0    21.773473            0            0    76.006399            0    75.021647 
  214000    15.026521 -0.017605271    59.958984     287.3571          600          600          600 -0.013127914    33682.425 5.9070443e-05    74.985505    -5.914098 -0.050873198   -5.9649712    20.991492            0            0            0    20.991492            0            0    19.526465            0    74.985505 
  215000    15.153097 -0.010172805    63.337084    303.54684          600          600          600 0.0060843572    33794.236 5.9070443e-05    78.490181   -4.5191828  -0.24605234   -4.7652351    19.918333            0            0            0    19.918333            0            0    46.444436            0    78.490181 
  216000     13.81142 0.0041267107    75.454552    361.62055          600          600          600 -0.014856642    33856.978 5.9070443e-05    89.265972   -4.2443256  -0.11482088   -4.3591464    18.170567            0            0            0    18.170567            0            0    102.26568            0    89.265972 
  217000    12.998327  0.013196833    57.162222    273.95344          600          600          600 0.0026751979      32705.4 5.9070443e-05    70.160549   -4.9583276  -0.29620558   -5.2545332     18.25286            0            0            0     18.25286            0            0     111.7324            0    70.160549 
  218000    21.090908  -0.00406881    62.507534    299.57118          600          600          600  0.007226564    32428.514 5.9070443e-05    83.598442   -5.2383386  0.028933271   -5.2094053    26.300313            0            0            0    26.300313            0            0    70.781127            0    83.598442 
  219000    21.908363 -0.0093890679     55.27161    264.89257          600          600          600 -0.011441382    32516.001 5.9070443e-05    77.179973   -5.1087521  -0.28334162   -5.3920937    27.300457            0            0            0    27.300457            0            0    47.603109            0    77.179973 
  220000    12.706673 0.0097507143    74.870015    358.81912          600          600          600 -0.0083356051    31761.315 5.9070443e-05    87.576688   -4.5142064  -0.44520161   -4.9594081    17.666081            0            0            0    17.666081            0            0    118.29279            0    87.576688 
  221000    13.672451 0.0093972246    66.679934    319.56766          600          600          600  0.013524018    36975.396 5.9070443e-05    80.352385   -6.0554276  -0.27536896   -6.3307966    20.003247            0            0            0    20.003247            0            0    109.95494            0    80.352385 
  222000    17.492629  0.012876719    69.340217    332.31723          600          600          600 0.0027901854    35842.319 5.9070443e-05    86.832846   -5.2249318  -0.24935164   -5.4742835    22.966913            0            0            0    22.966913            0            0     127.3963            0    86.832846 
  223000     16.15183 -0.00076579704    72.528886    347.59912          600          600          600 0.0085548468    36235.575 5.9070443e-05    88.680716   -6.8506058  -0.26841991   -7.1190257    23.270855            0            0            0    23.270855            0            0    86.268349            0    88.680716 
  224000    19.977289 0.0067418605    53.616525    256.96047          600          600          600 -0.0021727657    36378.258 5.9070443e-05    73.593814  0.049274759  -0.28329987  -0.23402511    20.211314            0            0            0    20.211314            0            0    94.831607            0    73.593814 
  225000    16.564723 0.0042703394    64.491782    309.08081          600          600          600 -0.003912501    34846.831 5.9070443e-05    81.056505   -2.7955295  -0.50328008   -3.2988096    19.863532            0            0            0    19.863532            0            0    94.508665            0    81.056505 
  226000    20.973369 -0.0054353164    68.864041    330.03512          600          600          600 0.0079199798    34548.318 5.9070443e-05     89.83741   -5.3962636 -0.095650065   -5.4919137    26.465283            0            0            0    26.465283            0            0    72.715411            0     89.83741 
  227000    16.622871 0.0039453271    68.545439    328.50821          600          600          600 -0.0066495567    34916.162 5.9070443e-05     85.16831    -3.363693  -0.18690451   -3.5505976    20.173468            0            0            0    20.173468            0            0    97.596637            0     85.16831 
  228000    15.303766 -0.010424109    66.231973    317.42078          600          600          600 -0.032617637    35810.187 5.9070443e-05    81.535739   -2.7850739 -0.071432458   -2.8565064    18.160272            0            0            0    18.160272            0            0    48.698353            0    81.535739 
  229000    18.839784 -0.0036494919    51.371894    246.20294          600          600          600 0.0071561453    36390.252 5.9070443e-05    70.211678    -4.830832  -0.39713352   -5.2279655    24.067749            0            0            0    24.067749            0            0    58.715273            0    70.211678 
  230000    11.487619  0.015407349    59.335196    284.36755          600          600          600  0.019951644    34710.141 5.9070443e-05    70.822816   -2.3676822  -0.17586829   -2.5435505     14.03117            0            0            0     14.03117            0            0     119.3581            0    70.822816 
  231000    17.759703 0.0044982761    67.557519    323.77354          600          600          600 0.0089032451    35101.128 5.9070443e-05    85.317222   -4.9478673  -0.11140872    -5.059276     22.81898            0            0            0     22.81898            0            0    99.487415            0    85.317222 
  232000    15.310357 -0.0063055339    66.472885    318.57536          600          600          600 -0.0050122236    37538.968 5.9070443e-05    81.783242   -4.9022318  -0.41959171   -5.3218235     20.63218            0            0            0     20.63218            0            0    61.919937            0    81.783242 
  233000    13.915926 0.0071153401    61.644866    295.43679          600          600          600 0.0088203889    34913.837 5.9070443e-05    75.560792   -6.2525935  -0.13385545   -6.3864489    20.302375            0            0            0    20.302375            0            0    97.975098            0    75.560792 
  234000    11.864834  0.013048711    62.266915    298.41799          600          600          600 0.0074785453    33823.668 5.9070443e-05    74.131749   -5.8413211 -0.051591059   -5.8929122    17.757747            0            0            0    17.757747            0            0    115.23699            0    74.131749 
  235000    15.641362   0.00473988    75.107655    359.95802          600          600          600  0.012524865    33906.517 5.9070443e-05    90.749017    -2.987313 -0.034058718   -3.0213717    18.662734            0            0            0    18.662734            0            0     105.6803            0    90.749017 
  236000    19.545022 0.0078063204    64.279828      308.065          600          600          600  0.010321848    35043.354 5.9070443e-05     83.82485     -3.69072  -0.20090226   -3.8916223    23.436644            0            0            0    23.436644            0            0    108.41584            0     83.82485 
  237000    19.210704 0.0087448575    54.219694     259.8512          600          600          600  0.023693424    39114.659 5.9070443e-05    73.430398   -3.7410976  -0.36318062   -4.1042782    23.314982            0            0            0    23.314982            0            0    100.97791            0    73.430398 
[...]
 4943000    16.060486  0.023261124     70.89119    339.75036          600          600          600    0.0380145    35816.609 5.9070443e-05    86.951676   -4.6500362  -0.24981726   -4.8998535    20.960339            0            0            0    20.960339            0            0    160.22744            0    86.951676 
 4944000    16.148034 0.0096961046    61.931602    296.81098          600          600          600  0.018542368     34288.76 5.9070443e-05    78.079635   -5.8282002  0.051845596   -5.7763546    21.924388            0            0            0    21.924388            0            0    108.62371            0    78.079635 
 4945000    13.121605 -0.027035796     57.48936    275.52127          600          600          600 -0.035774778     34376.16 5.9070443e-05    70.610965   -7.1941686  -0.34238406   -7.5365527    20.658157            0            0            0    20.658157            0            0   -14.555534            0    70.610965 
 4946000    19.471479 0.0039196567    66.623469    319.29705          600          600          600  0.014193897    34374.751 5.9070443e-05    86.094949  -0.93258496  -0.34887774   -1.2814627    20.752942            0            0            0    20.752942            0            0     98.44241            0    86.094949 
 4947000    14.009701 0.00021465167    59.593922    285.60751          600          600          600 0.0048871943    36082.828 5.9070443e-05    73.603623   -2.0774271  -0.64322801   -2.7206552    16.730356            0            0            0    16.730356            0            0    74.279806            0    73.603623 
 4948000    19.281084 -0.0057655793    64.339689    308.35189          600          600          600 -0.010222585     36573.98 5.9070443e-05    83.620773   -4.2258795  -0.19383458    -4.419714    23.700798            0            0            0    23.700798            0            0      65.4584            0    83.620773 
 4949000    13.951064    0.0135223    69.627858    333.69576          600          600          600  0.012378273    36453.506 5.9070443e-05    83.578922   -5.1218245  -0.42031182   -5.5421363    19.493201            0            0            0    19.493201            0            0    126.17604            0    83.578922 
 4950000    8.4156948 -0.0047065475    63.235648    303.06071          600          600          600 -0.019861866    37130.549 5.9070443e-05    71.651343   -7.6092147  -0.34417328   -7.9533879    16.369083            0            0            0    16.369083            0            0    56.825067            0    71.651343 
 4951000    17.624121  -0.01385805    57.180766    274.04232          600          600          600 -0.008476343     37274.75 5.9070443e-05    74.804887   -4.1932492  -0.27437017   -4.4676194     22.09174            0            0            0     22.09174            0            0    31.150111            0    74.804887 
 4952000    20.764936 -0.0025181039    57.719496    276.62421          600          600          600 -0.0052860901    36544.344 5.9070443e-05    78.484432   -4.1685604  -0.13276113   -4.3013215    25.066258            0            0            0    25.066258            0            0    70.552057            0    78.484432 
 4953000    12.396401 0.00074010079    72.471969    347.32634          600          600          600  0.008274751    36411.101 5.9070443e-05    84.868371   -4.2663415  -0.26663675   -4.5329782     16.92938            0            0            0     16.92938            0            0    87.199791            0    84.868371 
 4954000    22.193473 0.0025281821    56.694726    271.71294          600          600          600 -0.0010227014    33883.509 5.9070443e-05    78.888199   -5.1645039  -0.51302984   -5.6775337    27.871007            0            0            0    27.871007            0            0    86.852323            0    78.888199 
 4955000    15.379949 -0.031769355    59.526217    285.28303          600          600          600 -0.034155253     31952.95 5.9070443e-05    74.906167   -7.1730888  -0.22447877   -7.3975676    22.777517            0            0            0    22.777517            0            0   -25.171701            0    74.906167 
 4956000     16.73648 -0.0081371191    60.943328    292.07462          600          600          600 -0.019626323    32599.907 5.9070443e-05    77.679807   -5.6281883  -0.12365127   -5.7518396    22.488319            0            0            0    22.488319            0            0    52.046756            0    77.679807 
 4957000    14.521467  0.024159451    66.407246    318.26078          600          600          600  0.028013078    32597.626 5.9070443e-05    80.928713   -5.3281577  -0.30697448   -5.6351322    20.156599            0            0            0    20.156599            0            0    157.03433            0    80.928713 
 4958000    15.346807  0.011084257    59.072904     283.1105          600          600          600 0.0083721582    34474.487 5.9070443e-05    74.419712   -4.8103637   -0.4871293    -5.297493      20.6443            0            0            0      20.6443            0            0    109.33666            0    74.419712 
 4959000    11.790104   0.01486647    59.575342    285.51846          600          600          600  0.025001747    33811.126 5.9070443e-05    71.365445   -5.2332443  -0.19527795   -5.4285223    17.218626            0            0            0    17.218626            0            0    118.19688            0    71.365445 
 4960000    8.8992845  0.018139165    57.626316    276.17764          600          600          600  0.029416124    37804.233 5.9070443e-05    66.525601   -3.8272761  -0.44863445   -4.2759105    13.175195            0            0            0    13.175195            0            0    123.66648            0    66.525601 
 4961000    13.684305 0.0013850354    57.069612     273.5096          600          600          600 -0.0071452077    36945.431 5.9070443e-05    70.753917   -2.0924195  -0.37447388   -2.4668934    16.151198            0            0            0    16.151198            0            0     75.11697            0    70.753917 
 4962000    15.482024 0.0051240889    60.862456    291.68704          600          600          600  0.019055708    37285.685 5.9070443e-05     76.34448   -4.8360201   -0.4836707   -5.3196908    20.801715            0            0            0    20.801715            0            0     92.48607            0     76.34448 
 4963000    13.058296  0.018938377    73.489929    352.20497          600          600          600  0.019973777    35219.911 5.9070443e-05    86.548224   -2.3270371   -0.8615911   -3.1886282    16.246924            0            0            0    16.246924            0            0    146.20673            0    86.548224 
 4964000    14.352959 -0.021041981    62.273923    298.45158          600          600          600 -0.019510202    35660.695 5.9070443e-05    76.626882   -5.5947298  -0.44610742   -6.0408372    20.393797            0            0            0    20.393797            0            0    10.341729            0    76.626882 
 4965000    10.808055  0.015801942    73.548737    352.48682          600          600          600  0.034453338    35169.411 5.9070443e-05    84.356792   -3.9932768  -0.20823632   -4.2015131    15.009568            0            0            0    15.009568            0            0     134.1351            0    84.356792 
 4966000    18.328723 0.0020367709    63.078395    302.30706          600          600          600 -0.021354799    36136.298 5.9070443e-05    81.407118   -2.6413245  -0.12860496   -2.7699294    21.098653            0            0            0    21.098653            0            0    87.823228            0    81.407118 
 4967000    18.289201 -0.0089580577    69.926328     335.1262          600          600          600 -0.00043445263    35420.677 5.9070443e-05    88.215529   -4.3469125  -0.35633312   -4.7032456    22.992446            0            0            0    22.992446            0            0    59.996407            0    88.215529 
 4968000     16.14166 -0.0082182462    54.463002    261.01727          600          600          600 -0.015365456    35604.995 5.9070443e-05    70.604662   -4.5867351 -0.002795951   -4.5895311    20.731191            0            0            0    20.731191            0            0    44.716049            0    70.604662 
 4969000    11.811514   0.00666244    55.801254    267.43092          600          600          600 0.0025767674    37304.919 5.9070443e-05    67.612768   -3.0925289  -0.46084858   -3.5533775    15.364892            0            0            0    15.364892            0            0    88.600376            0    67.612768 
 4970000    16.742232 -0.0020576785    64.726902    310.20763          600          600          600 -0.0072013039    37693.139 5.9070443e-05    81.469134   -4.7584619  -0.16074496   -4.9192068    21.661439            0            0            0    21.661439            0            0    74.987162            0    81.469134 
 4971000    12.842287  0.015795521    68.948806    330.44136          600          600          600 0.0059130249    34434.297 5.9070443e-05    81.791093   -5.1900306 0.0049137786   -5.1851169    18.027404            0            0            0    18.027404            0            0    131.54917            0    81.791093 
 4972000    12.837651  0.010852211    57.719683     276.6251          600          600          600  0.029220417    31837.983 5.9070443e-05    70.557333   -4.9418197  -0.29686709   -5.2386868    18.076337            0            0            0    18.076337            0            0     104.7433            0    70.557333 
 4973000    17.975301 0.0050086226    66.330679    317.89383          600          600          600  0.014595466     32475.97 5.9070443e-05     84.30598   -2.3234265   -0.5671923   -2.8906188     20.86592            0            0            0     20.86592            0            0    100.08383            0     84.30598 
 4974000    20.457768 -0.020119052    63.669288    305.13895          600          600          600 -0.0061250592    31562.699 5.9070443e-05    84.127056   -4.3955004 -0.0086260012   -4.4041264    24.861895            0            0            0    24.861895            0            0    20.749257            0    84.127056 
 4975000    13.480933 -0.0010233656    64.691612     310.0385          600          600          600 0.00081306842    34887.991 5.9070443e-05    78.172545   -6.2225919  -0.15961232   -6.3822042    19.863138            0            0            0    19.863138            0            0    74.948802            0    78.172545 
 4976000    17.560657 -0.017232059    59.902646    287.08709          600          600          600 0.0014728931    36216.176 5.9070443e-05    77.463303   -4.7150785   -0.3367551   -5.0518336     22.61249            0            0            0     22.61249            0            0    23.179933            0    77.463303 
 4977000    18.890501  0.010628922     70.73006    338.97813          600          600          600  0.020913606    35219.911 5.9070443e-05    89.620561   -4.2089244  -0.15721008   -4.3661345    23.256636            0            0            0    23.256636            0            0    123.10314            0    89.620561 
 4978000    15.549241  0.012145202    66.213981    317.33455          600          600          600 0.0054355172    34811.835 5.9070443e-05    81.763223   -3.8050511  -0.21579301   -4.0208441    19.570086            0            0            0    19.570086            0            0    120.02229            0    81.763223 
 4979000    22.319735 -0.027158756    65.851009    315.59498          600          600          600 -0.054103969    35593.513 5.9070443e-05    88.170744   -5.9987978   -0.2106643   -6.2094621    28.529197            0            0            0    28.529197            0            0     2.616903            0    88.170744 
 4980000    20.691771  -0.03344691    67.147206    321.80709          600          600          600 -0.033543634    34565.971 5.9070443e-05    87.838977   -6.8800351  -0.27887762   -7.1589127    27.850684            0            0            0    27.850684            0            0   -17.523421            0    87.838977 
 4981000    14.518649 -0.018460968    62.582142    299.92874          600          600          600 -0.042054892    34833.519 5.9070443e-05    77.100791   -6.6584158  -0.61746057   -7.2758764    21.794525            0            0            0    21.794525            0            0    18.946186            0    77.100791 
 4982000    15.584895  0.015961501    61.420641    294.36217          600          600          600 0.0013059656    37421.077 5.9070443e-05    77.005536   0.30809717 -0.088935972    0.2191612    15.365734            0            0            0    15.365734            0            0    127.28647            0    77.005536 
 4983000    23.514008 0.0010107659    59.044052    282.97222          600          600          600 -0.014727199    35835.888 5.9070443e-05     82.55806   -3.1797661  -0.16194297   -3.3417091    26.855717            0            0            0    26.855717            0            0    85.742112            0     82.55806 
 4984000    26.654425 -0.0058650203    69.104469    331.18739          600          600          600  0.014650609     34897.86 5.9070443e-05    95.758894   -3.5754908  -0.24001557   -3.8155063    30.469931            0            0            0    30.469931            0            0    77.283268            0    95.758894 
 4985000    14.116677  0.019477967    65.149783    312.23432          600          600          600  0.019681428    37309.233 5.9070443e-05    79.266461   -3.7985854  -0.28166548   -4.0802509    18.196928            0            0            0    18.196928            0            0    140.62475            0    79.266461 
 4986000    17.283577 -0.013176849    55.418814    265.59805          600          600          600 -0.027996966    34175.329 5.9070443e-05     72.70239   -3.0620196  -0.20622992   -3.2682495    20.551826            0            0            0    20.551826            0            0    31.193491            0     72.70239 
 4987000    14.939226 -0.0078357774    62.192325    298.06052          600          600          600 -0.012238422    34020.375 5.9070443e-05    77.131551   -4.4288787  -0.47410446   -4.9029832    19.842209            0            0            0    19.842209            0            0    52.447767            0    77.131551 
 4988000    16.308688 -0.014880521    65.303935     312.9731          600          600          600 -0.012964025    33961.701 5.9070443e-05    81.612623   -5.7848357  -0.24209171   -6.0269274    22.335616            0            0            0    22.335616            0            0    34.736922            0    81.612623 
 4989000    26.465773 -0.0033946669    58.517932    280.45076          600          600          600   0.00987363    35277.082 5.9070443e-05    84.983705  -0.76829024  -0.30075371    -1.069044    27.534817            0            0            0    27.534817            0            0    74.290035            0    84.983705 
 4990000    21.263501  0.001064748    65.842844    315.55585          600          600          600 -0.012373091    36468.403 5.9070443e-05    87.106345   -3.8744522  -0.13307691   -4.0075291     25.27103            0            0            0     25.27103            0            0    90.460448            0    87.106345 
 4991000    20.183973 -0.00076935527    56.225846     269.4658          600          600          600 0.0019284253     37841.41 5.9070443e-05    76.409819   -3.7344135  0.013786373   -3.7206271      23.9046            0            0            0      23.9046            0            0    73.986244            0    76.409819 
 4992000    16.881143 0.00073301263    66.600518    319.18705          600          600          600 -0.00026286081    36343.899 5.9070443e-05    83.481661   -1.0041451  -0.25462112   -1.2587662    18.139909            0            0            0    18.139909            0            0    85.790752            0    83.481661 
 4993000    12.942317 -0.001915212    64.955061     311.3011          600          600          600 -0.023508683    35797.351 5.9070443e-05    77.897379   -4.3919408  -0.60629124    -4.998232    17.940549            0            0            0    17.940549            0            0    71.864196            0    77.897379 
 4994000    11.719991 0.0040912365    68.465864    328.12684          600          600          600 0.00018948983    33973.254 5.9070443e-05    80.185855    -5.946404  -0.10831612   -6.0547201    17.774711            0            0            0    17.774711            0            0    93.073817            0    80.185855 
 4995000    16.734264 0.0036663974    66.563259    319.00849          600          600          600 -0.00023071372    36632.756 5.9070443e-05    83.297523   -3.2955125  -0.20006316   -3.4955757    20.229839            0            0            0    20.229839            0            0    94.847182            0    83.297523 
 4996000    17.894783 0.0019301134    66.737492    319.84351          600          600          600   -0.0150408    35499.822 5.9070443e-05    84.632275   -4.7835128 -0.085546107    -4.869059    22.763842            0            0            0    22.763842            0            0    90.712399            0    84.632275 
 4997000    20.089399 -0.019902706    58.143795    278.65769          600          600          600 -0.030105686    37107.226 5.9070443e-05    78.233195   -4.1355758  -0.15263541   -4.2882113    24.377611            0            0            0    24.377611            0            0    15.536917            0    78.233195 
 4998000    23.213316  0.021923103     59.34472     284.4132          600          600          600 0.0091668648    35467.402 5.9070443e-05    82.558036   0.58191444  -0.23649125   0.34542318    22.867893            0            0            0    22.867893            0            0    151.61885            0    82.558036 
 4999000    24.597475 -0.018792345    59.640274    285.82966          600          600          600  -0.01976716    36967.248 5.9070443e-05    84.237749   -5.6903784  -0.41455224   -6.1049306    30.702406            0            0            0    30.702406            0            0     25.03926            0    84.237749 
 5000000     15.99964 -0.010538134    69.031103    330.83578          600          600          600 -0.0049308017    34442.215 5.9070443e-05    85.030743   -6.3379765  -0.35133699   -6.6893135    22.688954            0            0            0    22.688954            0            0    51.834163            0    85.030743 
Loop time of 152.428 on 1 procs for 5000000 steps with 71 atoms

Performance: 28341.274 ns/day, 0.001 hours/ns, 32802.401 timesteps/s
99.7% CPU use with 1 MPI tasks x no OpenMP threads

MPI task timing breakdown:
Section |  min time  |  avg time  |  max time  |%varavg| %total
---------------------------------------------------------------
Pair    | 73.406     | 73.406     | 73.406     |   0.0 | 48.16
Bond    | 3.6214     | 3.6214     | 3.6214     |   0.0 |  2.38
Neigh   | 42.518     | 42.518     | 42.518     |   0.0 | 27.89
Comm    | 2.3395     | 2.3395     | 2.3395     |   0.0 |  1.53
Output  | 0.50524    | 0.50524    | 0.50524    |   0.0 |  0.33
Modify  | 16.882     | 16.882     | 16.882     |   0.0 | 11.08
Other   |            | 13.16      |            |       |  8.63

Nlocal:        71.0000 ave          71 max          71 min
Histogram: 1 0 0 0 0 0 0 0 0 0
Nghost:        46.0000 ave          46 max          46 min
Histogram: 1 0 0 0 0 0 0 0 0 0
Neighs:        734.000 ave         734 max         734 min
Histogram: 1 0 0 0 0 0 0 0 0 0

Total # of neighbors = 734
Ave neighs/atom = 10.338028
Ave special neighs/atom = 1.9718310
Neighbor list builds = 121974
Dangerous builds = 40
Total wall time: 0:02:32
