ITEM: TIMESTEP
0
ITEM: NUMBER OF ATOMS
71
ITEM: BOX BOUNDS pp pp pp
-3.0000000000000000e+02 3.0000000000000000e+02
-3.0000000000000000e+02 3.0000000000000000e+02
-3.0000000000000000e+02 3.0000000000000000e+02
ITEM: ATOMS id mol type q xu yu zu
1 1 2 0                    6                    0                    0
2 1 4 0                   12                    0                    0
3 1 12 0                   18                    0                    0
4 1 17 0                   24                    0                    0
5 1 5 0.75                   30                    0                    0
6 1 18 0                   36                    0                    0
7 1 11 0                   42                    0                    0
8 1 11 0                   48                    0                    0
9 1 5 0.75                   54                    0                    0
10 1 17 0                   60                    0                    0
11 1 15 0                   66                    0                    0
12 1 11 0                   72                    0                    0
13 1 7 -0.75                   78                    0                    0
14 1 7 -0.75                   84                    0                    0
15 1 11 0                   90                    0                    0
16 1 10 0                   96                    0                    0
17 1 2 0                  102                    0                    0
18 1 18 0                  108                    0                    0
19 1 18 0                  114                    0                    0
20 1 15 0                  120                    0                    0
21 1 17 0                  126                    0                    0
22 1 11 0                  132                    0                    0
23 1 8 -0.75                  138                    0                    0
24 1 2 0                  144                    0                    0
25 1 12 0                  150                    0                    0
26 1 15 0                  156                    0                    0
27 1 7 -0.75                  162                    0                    0
28 1 8 -0.75                  168                    0                    0
29 1 5 0.75                  174                    0                    0
30 1 6 0                  180                    0                    0
31 1 11 0                  186                    0                    0
32 1 11 0                  192                    0                    0
33 1 7 -0.75                  198                    0                    0
34 1 12 0                  204                    0                    0
35 1 11 0                  210                    0                    0
36 1 16 0.375                  216                    0                    0
37 1 4 0                  222                    0                    0
38 1 11 0                  228                    0                    0
39 1 11 0                  234                    0                    0
40 1 15 0                  240                    0                    0
41 1 17 0                  246                    0                    0
42 1 4 0                  252                    0                    0
43 1 7 -0.75                  258                    0                    0
44 1 6 0                  264                    0                    0
45 1 4 0                  270                    0                    0
46 1 2 0                  276                    0                    0
47 1 11 0                  282                    0                    0
48 1 8 -0.75                  288                    0                    0
49 1 8 -0.75                  294                    0                    0
50 1 20 0                  300                    0                    0
51 1 7 -0.75                  300                    6                    0
52 1 5 0.75                  300                   12                    0
53 1 6 0                  300                   18                    0
54 1 11 0                  300                   24                    0
55 1 2 0                  300                   30                    0
56 1 20 0                  300                   36                    0
57 1 18 0                  300                   42                    0
58 1 8 -0.75                  300                   48                    0
59 1 11 0                  300                   54                    0
60 1 10 0                  300                   60                    0
61 1 17 0                  300                   66                    0
62 1 12 0                  300                   72                    0
63 1 2 0                  300                   78                    0
64 1 12 0                  300                   84                    0
65 1 6 0                  300                   90                    0
66 1 11 0                  300                   96                    0
67 1 8 -0.75                  300                  102                    0
68 1 18 0                  300                  108                    0
69 1 3 0.75                  300                  114                    0
70 1 12 0                  300                  120                    0
71 1 7 -0.75                  300                  126                    0
ITEM: TIMESTEP
100000
ITEM: NUMBER OF ATOMS
71
ITEM: BOX BOUNDS pp pp pp
-3.0000000000000000e+02 3.0000000000000000e+02
-3.0000000000000000e+02 3.0000000000000000e+02
-3.0000000000000000e+02 3.0000000000000000e+02
ITEM: ATOMS id mol type q xu yu zu
1 1 2 0     155.721506100486      19.915484727124     23.6999763307619
2 1 4 0     159.099579948184     17.7365689415796     24.3205430600333
3 1 12 0     159.839799592982     15.3616727811072     21.4430077431614
4 1 17 0     161.602792070471     15.9483076961905      18.002396126533
5 1 5 0.75     162.051314928983     14.7471562788491     14.9577589480899
6 1 18 0     161.267225089859     11.4197525613495     14.2278247623515
7 1 11 0     162.759260667438      9.2082016624743     11.3838031160944
8 1 11 0     160.245234550864     7.49873635623169     9.01018631443693
9 1 5 0.75     161.324376084265     4.15773505488067     7.68791574520475
10 1 17 0     159.407630117888     2.03203416221061     5.87367356656913
11 1 15 0     156.977406878839  0.00465108854258151     7.95037831830484
12 1 11 0     157.926896532969    -2.76135688999232     10.1730294926894
13 1 7 -0.75     156.074641088437    -5.91725174867157     10.6216481036803
14 1 7 -0.75     154.984187625506    -6.14877136710843     14.0915418008093
15 1 11 0     154.092676885728    -4.43283260058984     17.4879491099689
16 1 10 0     156.470156515724    -1.56206279812237     17.7805736267608
17 1 2 0     157.985490733426   -0.737828743458275     21.3434924363352
18 1 18 0     160.440360772737      1.6505213130946     19.9853532239859
19 1 18 0     162.014716579878     5.49625870354377     20.4831333389091
20 1 15 0     164.316372384764     3.50233277428684     22.9512899427458
21 1 17 0     168.095150854701       3.525073917232     22.1253553334492
22 1 11 0     169.375267199529     6.42742379858065     20.1363068455588
23 1 8 -0.75     168.016911061462      10.076960333266     19.6678727015452
24 1 2 0     165.303698038939     10.7631583699485     21.8109860056399
25 1 12 0     166.162769873107     14.0511499974836     23.9974599797381
26 1 15 0      165.51755424456     17.6844032021721      22.634531109077
27 1 7 -0.75     167.001335923327     20.4739904553745     20.7042533991197
28 1 8 -0.75     170.173020460554     21.3630380115324     22.4206041862484
29 1 5 0.75     171.748349440791     18.2243636097712     22.0553446606452
30 1 6 0     171.907039226683     17.8994145679121     18.2037498950187
31 1 11 0     173.290110439958     15.1347372914559     16.0121615976794
32 1 11 0     174.910949363146     16.6352336502867      13.021505175327
33 1 7 -0.75     176.292701017385     19.9606571418269     14.0275568459285
34 1 12 0      179.99702940282      20.977434068827     14.3453096582882
35 1 11 0      183.67887670858     21.6527527880078     13.0244132387658
36 1 16 0.375     187.037285740163      19.589156847037     11.3038524521943
37 1 4 0     185.062685094421     17.0771379077508     9.27151701901576
38 1 11 0     183.065796794831     16.1250265553845      5.8255448255651
39 1 11 0      182.25698257728     12.4837187901315     6.33500640873593
40 1 15 0     182.120582570906     11.8659609375435     2.68792922311115
41 1 17 0     185.459868914356     11.3523581146142     1.36665752362006
42 1 4 0     187.771586826739     13.7608972131465   0.0173762109652184
43 1 7 -0.75     189.945505021559     16.7363714791321   -0.124032005702268
44 1 6 0     191.803621724938     17.6475966823791      3.3844757549044
45 1 4 0     189.983049785765     21.3192153275973     3.22084066335239
46 1 2 0     186.385859382107       20.87916552925     2.90498088745061
47 1 11 0     184.158376807823     23.8251385819818     3.13439852916555
48 1 8 -0.75     183.863907500021     24.8553869313505   -0.645624070191427
49 1 8 -0.75     185.886864952409     22.0698732313756    -2.65255016843275
50 1 20 0     188.539455082032     21.9629620989584    -5.83170117679763
51 1 7 -0.75     191.801626896256      22.594448693984    -3.99828414579987
52 1 5 0.75     195.308294072263      21.748948469513    -2.65216507645126
53 1 6 0     196.010904605465     18.0047783992989    -1.50787961447153
54 1 11 0     199.809719892478     16.7314270538021    -1.03660332260912
55 1 2 0     201.017454504288     13.5676035777003    -2.78470086021123
56 1 20 0       198.6708384306      13.066651715246    -5.88124467634134
57 1 18 0     198.361492071776     10.2192634279073    -8.66228138154552
58 1 8 -0.75     197.168757473355      6.6441961885658     -9.7232016036675
59 1 11 0     194.460426034821     3.61561603549974    -9.99835313114454
60 1 10 0     193.790498743688     2.19101657287298       -13.3540349182
61 1 17 0     191.912623615818     4.45950696087953    -15.4215606020625
62 1 12 0     192.608297969909     8.51079234741919    -15.9302084474776
63 1 2 0     194.959085851841     11.3248057468303    -15.2500201697135
64 1 12 0     196.351371771225      13.680409490861    -17.5214010025339
65 1 6 0     196.016536364097     17.5180571877231    -17.4949229440643
66 1 11 0     197.704302175398     19.5283099844769    -19.7740672045668
67 1 8 -0.75     199.864426641595     18.4201093034564     -22.884472181619
68 1 18 0     198.392341951457     15.7559920629597    -25.3875303447964
69 1 3 0.75     196.705685385455      15.157864804646    -28.5949444360121
70 1 12 0     197.499947483159     12.5756463477628    -31.2877404149621
71 1 7 -0.75     195.218546476983     9.92310539655221    -31.4787966832508
ITEM: TIMESTEP
200000
ITEM: NUMBER OF ATOMS
71
ITEM: BOX BOUNDS pp pp pp
-3.0000000000000000e+02 3.0000000000000000e+02
-3.0000000000000000e+02 3.0000000000000000e+02
-3.0000000000000000e+02 3.0000000000000000e+02
ITEM: ATOMS id mol type q xu yu zu
1 1 2 0     173.027850053322     69.7488916304882    -8.19734139162818
2 1 4 0     172.492329243453     71.9400068187925    -5.19300285595279
3 1 12 0     169.432651016392      73.031041445537    -3.48894107333633
4 1 17 0     170.257855472407     75.9944892974314   -0.814078149476209
5 1 5 0.75     168.514611222564     75.4497710398023     2.33501605109933
6 1 18 0     165.867206822477     73.0253561652903     1.38346062861824
7 1 11 0     164.156406361983      69.512161672095     2.55180827633845
8 1 11 0     163.247406067095     66.0436604964789     4.16634304794947
9 1 5 0.75     163.955885707887      63.379392097654     1.37478721428708
10 1 17 0     163.753027719045     62.7785003347841    -2.43804572174575
11 1 15 0     162.995562448172     58.9116265083819    -3.08642197672213
12 1 11 0     159.512458591368     57.2849997950294    -2.91082671036708
13 1 7 -0.75     159.042992563585     55.7995471894375    0.528539446878852
14 1 7 -0.75     162.587428467412     55.1504825356941      1.9425582552676
15 1 11 0      163.96852771823     51.9995757904925     4.27217390576913
16 1 10 0     161.316819871186     50.8038525910893     6.65424198498267
17 1 2 0     160.171099944088     47.5914922502224     4.72024980191784
18 1 18 0     159.432428427122      43.647864554039     4.12535940628153
19 1 18 0     158.363654303046     40.6401031308574     6.09008870492615
20 1 15 0     154.758599104723       41.78719722413     6.94677240201416
21 1 17 0     153.692373477661     38.9246438082175     9.40722040973607
22 1 11 0     155.674935351305     38.6365009585502     13.0381445742632
23 1 8 -0.75     157.415999913511     36.4634521677954     15.3266010146695
24 1 2 0     157.157903814379     32.6072917356802     14.3661804722149
25 1 12 0     155.974507156844     30.9818345305523     10.9079910719563
26 1 15 0     155.688984946867     28.8945741417818     7.76097025985012
27 1 7 -0.75     157.517589043543     25.4569280860936     7.19536467035502
28 1 8 -0.75     161.165162303378     25.8216705767121     8.83004722042381
29 1 5 0.75     159.832340822534     23.4038700363799     12.0307768285168
30 1 6 0     159.819905128213     20.2860398029528     13.5126112373581
31 1 11 0     159.432615237597     16.5092235316855     13.4959527460914
32 1 11 0     157.359239869897     16.8688548914184     16.5431938725664
33 1 7 -0.75     159.481945987836     18.2488146410873      19.392902854613
34 1 12 0     162.604434915027     20.1033067220011     20.5359637812939
35 1 11 0     161.161711141103      23.032269784193     22.6819835699948
36 1 16 0.375     159.823439514785     26.1700846994162     22.0776490358754
37 1 4 0     160.038568716394     28.6539354218896     24.9411482936575
38 1 11 0      161.04985576116     32.5448409333782     25.7803251326636
39 1 11 0      163.96400322938     34.4181716969427     27.6118865531866
40 1 15 0     163.175855975685     36.2927222748039     30.8831412303773
41 1 17 0     163.831077246063     36.7673429580772      34.343412842368
42 1 4 0     164.872365956937     38.8365078598587     37.2119154462203
43 1 7 -0.75     162.433728498033     41.6226557824435     39.0812333174635
44 1 6 0     163.045167960278     44.8676661931045     40.6224472786922
45 1 4 0     165.115122056079      48.293679710248     41.0844971974555
46 1 2 0     168.039289663996      45.825584858081      40.734197342904
47 1 11 0     170.641266684688     43.5776359862184     39.3764104580124
48 1 8 -0.75     170.059150411123     41.6253633796313     36.2769173658205
49 1 8 -0.75     169.458537384529     39.2466162223285     33.4640276088552
50 1 20 0     169.326000389158      36.511083668764     30.1935763635066
51 1 7 -0.75     172.953013131051      35.512006383545     30.4588363348938
52 1 5 0.75      176.50176805599     35.1983607281173     32.0456094766154
53 1 6 0     177.503542561694     31.5347613704758     32.0106566825367
54 1 11 0     179.431297615792     28.5316980204765     30.4093265734629
55 1 2 0     181.688158313502     26.0207183243821     31.1914090644675
56 1 20 0     184.570676803453     23.7032885198239     30.7235419690504
57 1 18 0     185.568575216921      24.584690244931     34.1823293899144
58 1 8 -0.75      185.57488743201     26.0620549816307     38.0209434561338
59 1 11 0     186.294704203038     28.5157050880873     41.0520523330371
60 1 10 0      182.59566815024     28.4434058656711     42.4687079175831
61 1 17 0     183.297987352095     25.0862306481633     43.8960138000725
62 1 12 0     184.482435356599     21.5271065098995     43.5874343583341
63 1 2 0     183.879765163548      18.566788919883     46.1034242709852
64 1 12 0     187.268624802601      18.723313216332      48.427666953123
65 1 6 0     185.891110729891     20.1486926174271      51.872712552671
66 1 11 0     182.876820977831      22.245972294642     53.5770967911952
67 1 8 -0.75     184.453756554351     22.6061997477448     57.0330843516795
68 1 18 0     182.502332216503     21.0734240768744     59.8432766983777
69 1 3 0.75     181.759510177366     23.4565657087844     62.5395394297607
70 1 12 0     180.415942904185     21.7953491236287      65.590280106143
71 1 7 -0.75      180.03463720773     20.7900019732341     69.2628058671834
ITEM: TIMESTEP
300000
ITEM: NUMBER OF ATOMS
71
ITEM: BOX BOUNDS pp pp pp
-3.0000000000000000e+02 3.0000000000000000e+02
-3.0000000000000000e+02 3.0000000000000000e+02
-3.0000000000000000e+02 3.0000000000000000e+02
ITEM: ATOMS id mol type q xu yu zu
1 1 2 0     150.153102124343     15.3191722104878    -9.07758791567822
2 1 4 0     152.284336799602     17.5796263500956    -6.86037786126075
3 1 12 0     154.866561785383     17.1636675747507    -4.29876125445911
4 1 17 0     158.019996987784     18.6882835466681    -3.55175930428112
5 1 5 0.75     161.014174959214     21.3788415860289    -3.04467491475764
6 1 18 0     158.990022768783     23.9554398215409    -5.84931156119024
7 1 11 0     156.816430845351     26.3473429473162    -8.31422242031316
8 1 11 0     156.182756956421     23.6161011982609    -11.1522442916332
9 1 5 0.75     154.872140223015     23.2761080401506    -14.5751935361399
10 1 17 0     153.015898154045     24.7051276803875    -17.7660417059258
11 1 15 0     154.949844575073     25.2183925147145    -20.8534198490958
12 1 11 0     155.592302333512     28.0043059676311    -23.0225655761821
13 1 7 -0.75     156.453743149994     30.9909146672089    -20.6120544698708
14 1 7 -0.75     160.489047619066     30.4420556231799    -19.6817552015759
15 1 11 0     162.893772579392     28.3217241700176    -17.9864029195445
16 1 10 0     163.546464127627     24.6739334195856    -19.0517933251671
17 1 2 0     163.738891189685     20.9531575795748    -17.4791483339455
18 1 18 0     167.411696788078     19.3308399731747    -18.1865160459047
19 1 18 0     166.546932150965     17.8508499476475    -14.8435388690992
20 1 15 0     164.937598194979     20.7146142063263    -13.2741217317712
21 1 17 0     167.772398166175     23.5019441542505    -13.0076724427144
22 1 11 0      167.97634376857     25.8220053647684    -10.1353778839627
23 1 8 -0.75     165.962630558498     24.5728140700253    -7.05916116200572
24 1 2 0     165.485510451382     28.3854448760164    -6.57271126032283
25 1 12 0       166.0841834081     31.4135281166696    -4.31035172785429
26 1 15 0     168.910154311872     32.2397484376603    -2.13480438948089
27 1 7 -0.75      168.73115746314     29.5200050810694    0.542914019584517
28 1 8 -0.75     169.888444579256     27.9710449121322     3.75958315691465
29 1 5 0.75     173.422212025101     28.4827252168047      5.2458125354205
30 1 6 0     174.577632149518     25.5444103145157     6.93785391091013
31 1 11 0     177.555807103478     23.4238942510338     5.16289913799235
32 1 11 0     179.559373970237     24.0744799959452     1.87843563527057
33 1 7 -0.75     182.221810029462     21.8534342566968    0.500080663344445
34 1 12 0     184.745460977664     21.6982152571876    -2.57095943101572
35 1 11 0     188.289598673379     21.4229037979233    -1.61606256372461
36 1 16 0.375     188.741934919668     18.9270155994256     1.19106686530531
37 1 4 0     191.869532026614     17.1662685107239     2.42354141001136
38 1 11 0     195.304658359381     19.4775761140603     2.83486759814286
39 1 11 0     197.464818687711     18.0794003070407     5.54769905451961
40 1 15 0     195.182097759121     20.2335816994455     8.21098728687393
41 1 17 0     192.551749140791     19.3942492388599     10.6312714869721
42 1 4 0      191.70774860043     16.7925836198249      13.194428437661
43 1 7 -0.75     194.299323811262     14.3320250069971     12.0668969087323
44 1 6 0     196.746600961891     15.9823588613326      14.525147840878
45 1 4 0     199.485738535357     14.2690125525361     12.1808356614311
46 1 2 0     201.608190793632     11.5381055369168      13.728879062879
47 1 11 0     203.834021968194     11.8934070572429     16.7926353969479
48 1 8 -0.75     204.674480260269     13.1283907077129      20.357244164162
49 1 8 -0.75     205.463507944518     14.9680219289124     23.7506913737227
50 1 20 0     205.072972698624     12.7461728219705     27.1935764344439
51 1 7 -0.75     202.452478259549     11.7772967994878     29.9653930282013
52 1 5 0.75     200.844412449483     13.9494248944434      32.748395275579
53 1 6 0     196.980203629707     13.1256072757713      33.504937539377
54 1 11 0     195.198053103537     13.6581498361734     36.5727883749864
55 1 2 0     197.737621192227     15.0076420837827     38.8145688083182
56 1 20 0     200.186435301885       12.27170393064     39.4278813141546
57 1 18 0     200.460467167352     8.87404463506853     38.3023979129856
58 1 8 -0.75      200.90891280778     5.74321758025734     36.6961565819664
59 1 11 0     199.710580315233     5.76152763560817     33.0035183970806
60 1 10 0     198.643547381326     1.97847569392526      31.966860664793
61 1 17 0     195.103129338591    0.762834927957561     33.2096996910328
62 1 12 0     193.127485177614     2.72954510224722     30.7440963528897
63 1 2 0     194.444521895243     5.54732949454027     28.2635751466962
64 1 12 0     192.678585177436     7.56241100406329     25.6217701818167
65 1 6 0     193.351209170971     11.3485219068972     24.8444844431956
66 1 11 0     194.198911300221     15.2188349583057     24.5940776965383
67 1 8 -0.75      192.69549275073     16.7998809482025     27.7514771915538
68 1 18 0     188.756276265354     18.3428494196816     26.8163481737224
69 1 3 0.75     189.961003094812     21.7542462766053     25.2425430001583
70 1 12 0     192.254612403741     23.0600585217023     22.6299508629873
71 1 7 -0.75     193.262538909237     26.7650934771105     21.9388246843776
ITEM: TIMESTEP
400000
ITEM: NUMBER OF ATOMS
71
ITEM: BOX BOUNDS pp pp pp
-3.0000000000000000e+02 3.0000000000000000e+02
-3.0000000000000000e+02 3.0000000000000000e+02
-3.0000000000000000e+02 3.0000000000000000e+02
ITEM: ATOMS id mol type q xu yu zu
1 1 2 0     218.932915749491      24.218714285217      13.119349676134
2 1 4 0     217.801770979285     27.7299273807615     12.4655418853248
3 1 12 0     219.223750894743     27.6531267241973     9.10762237988815
4 1 17 0     222.124366141114     27.4589761090881     6.51692724808503
5 1 5 0.75     222.298140054228     29.3243970864768      3.0668493265121
6 1 18 0     223.453637636202     30.5102864889925   -0.157406473813039
7 1 11 0     225.121789624454     29.4369667997744    -3.90779231592598
8 1 11 0     222.652036333224     29.4098719734132    -7.13989885976519
9 1 5 0.75      220.15054827124     32.1961682625948    -7.46462246902778
10 1 17 0     221.320438198124     35.9130876579025    -6.63821330258423
11 1 15 0     221.954037824822     36.8600186489453    -2.69454308442088
12 1 11 0     218.894867064789     37.8708331881034   -0.952304630912269
13 1 7 -0.75     220.145406728639     39.0380433386212     2.58440852796984
14 1 7 -0.75     216.746304625222     41.2365697013616     3.32426722419356
15 1 11 0     216.367116222239      44.181620684659     5.93948938594829
16 1 10 0     213.738844317585     47.0532668806531     6.60724303442252
17 1 2 0     213.805402266474     49.2295189213105     9.58313377437258
18 1 18 0     212.322399792046     53.0281372649593     9.34231261739046
19 1 18 0     212.945512389581      53.447266380057     13.2852644253665
20 1 15 0      209.24230086399     53.9481017521196     13.4650810413156
21 1 17 0     207.568758952193     55.8344901640569     16.1622231671701
22 1 11 0     205.922062870334     58.7094007375239     13.8653410829617
23 1 8 -0.75     206.459714169999     59.0995043116507     10.3168034770806
24 1 2 0     203.977143736361     58.6792295172988      7.7051088154101
25 1 12 0     201.281370985833     58.1896022414115     4.81499136825144
26 1 15 0     197.682658952576      56.348505641031     4.83528729168623
27 1 7 -0.75     193.952650464029     57.0803982921833       5.535441978349
28 1 8 -0.75     191.595748789527     54.1213051533134     5.45549402996483
29 1 5 0.75     193.562468267588     51.1692941315559     7.43651974317193
30 1 6 0     192.848692440984     47.5051793852916     8.39555874317447
31 1 11 0     191.169948772851     44.7713118710422        10.6676069438
32 1 11 0     189.805169329507     41.7105562488319     9.43394692461374
33 1 7 -0.75     190.092878515773     39.1181261686461     12.5322611780745
34 1 12 0     191.933949550518     37.5208324797169     15.2788262268256
35 1 11 0      195.31355506923     35.3403513964755     15.0411247051037
36 1 16 0.375     196.481342310251     31.9078301181372     13.5221151505221
37 1 4 0     199.697731296122     31.6187354096741      15.669206750356
38 1 11 0     201.189427929014     28.1256391422314     15.0377214865225
39 1 11 0     204.027302867904     28.2402723911627     17.8585473649678
40 1 15 0     205.658134145818     26.0792447497611     20.2278387190807
41 1 17 0     209.001615955334     24.5543690252748     21.3919105657602
42 1 4 0     212.858891036214     25.1791874608449      22.752109791274
43 1 7 -0.75     216.543104012178     24.5353313588781     20.8970347152088
44 1 6 0     219.676879791256     22.5117174234796     20.0600402235588
45 1 4 0     221.772096107357     21.8404201788515     23.3221521938222
46 1 2 0     222.187730998272     17.8940305349726     23.9283659335337
47 1 11 0     219.661488193186     15.6499550668427     22.2979056810974
48 1 8 -0.75     216.887311274149     14.2032762568149     20.1398336472709
49 1 8 -0.75     214.314463457691     11.4587017334961     21.4178811583689
50 1 20 0     211.190815119495     9.99152303902397     19.9069804528695
51 1 7 -0.75     211.560962323777     7.27630230383394     17.4164418115197
52 1 5 0.75     211.387483827084     4.25397209989967     14.9152706189839
53 1 6 0     210.488815364542     3.59322229733912      11.303257001394
54 1 11 0     211.628079392098   0.0977614183369773     10.0036685027308
55 1 2 0     213.346678069035    -3.38642929468138     11.0789549668043
56 1 20 0     217.111031668928     -2.7797906831469     11.5426869577627
57 1 18 0     218.591421377041     -6.0217809479613     10.7965965519818
58 1 8 -0.75     220.830659037832    -8.86051982994828      11.831828809958
59 1 11 0     223.996414128973    -8.12783067225452     14.2716108546575
60 1 10 0     225.402642266264     -4.9457328192265     12.9132934696748
61 1 17 0     225.531685546416    -1.16597938799823     14.0350439740879
62 1 12 0     226.094398713304      1.1187783924856     17.3171610993701
63 1 2 0     224.534350875009     3.73571652834951     19.6418375027505
64 1 12 0     225.656034629536     7.60531343007571     19.9259367555995
65 1 6 0     223.046270512396     9.21387216663305       21.92326303047
66 1 11 0     223.099887444217     10.6141769380783     25.5849895385301
67 1 8 -0.75     226.269752863708     12.3574374656063      25.917141751415
68 1 18 0     229.209066097596      13.937295176788      24.548437526417
69 1 3 0.75     231.195749266661     16.5796902946564     26.5703101710434
70 1 12 0     228.755106753978     19.3687337512653     26.0622338852677
71 1 7 -0.75     230.112389115286     22.2152239070075     24.1778798391485
ITEM: TIMESTEP
500000
ITEM: NUMBER OF ATOMS
71
ITEM: BOX BOUNDS pp pp pp
-3.0000000000000000e+02 3.0000000000000000e+02
-3.0000000000000000e+02 3.0000000000000000e+02
-3.0000000000000000e+02 3.0000000000000000e+02
ITEM: ATOMS id mol type q xu yu zu
1 1 2 0     212.496344151966     90.3713938675865    -30.2299351966219
2 1 4 0     211.028278433077     89.4388069788346    -27.0848822940304
3 1 12 0     212.251737355976     86.6132441929572    -25.0605175628387
4 1 17 0     209.482098085756      87.873595944966    -22.1206070392546
5 1 5 0.75       206.7279071322     87.5435327287269    -19.5922875118164
6 1 18 0      205.36465897022     86.5434171953181    -16.1835206405296
7 1 11 0     205.704886969549      88.719692555538    -13.1795964895194
8 1 11 0      205.63938805206     86.8171777792783    -9.83555538708502
9 1 5 0.75     205.508932046429     86.2330883888622    -6.24141593026699
10 1 17 0     204.446581436393     84.4155922654564    -2.74576979150908
11 1 15 0     206.838862446787     83.8398513534618  -0.0301028949161781
12 1 11 0     205.235387852519     83.8465690286824     3.50206799851622
13 1 7 -0.75      201.51451221318     84.4489820303249       5.091389211946
14 1 7 -0.75       198.7793289274     86.8608779642501     5.92540157845384
15 1 11 0     195.547432963591     86.7861815968847     3.70165159382815
16 1 10 0     194.974322324809     83.2039818018597     3.91792247476487
17 1 2 0     191.647946186103     82.8250789421003      5.7201958806996
18 1 18 0     188.710347686519     80.7640349570331     7.14226236198714
19 1 18 0     187.738737473571     77.6203002615475     4.92152498444692
20 1 15 0     190.785355235071     75.8074583157683     3.15238227183352
21 1 17 0     190.981349760322     72.1612650168857     3.73354417545146
22 1 11 0     190.136706517641     68.9828638710337     2.11225619340973
23 1 8 -0.75     189.201463902263     67.1264298725852    -1.25679540658821
24 1 2 0     189.596125850573     70.5764379762648    -3.45400266639889
25 1 12 0     193.666344088361     71.2100025683027    -4.61868116669688
26 1 15 0     195.388816977005     71.4682931042801     -1.2037824810729
27 1 7 -0.75     198.133453355759     68.8147762609889     -1.6852263589145
28 1 8 -0.75     200.214474070648     65.8191920011526    -1.28177168514154
29 1 5 0.75     197.703077264411     64.6493915112872     1.05789618707349
30 1 6 0     198.071807630753     61.1024060956063      2.0772801717945
31 1 11 0     198.164884720217     59.1278620226016     5.26199438681913
32 1 11 0     194.933197468173     57.6987324877467     3.87699160312696
33 1 7 -0.75     192.097077496777     56.7877342474616     1.35917194318486