LAMMPS (10 Mar 2021)
Reading data file ...
  orthogonal box = (-300.00000 -300.00000 -300.00000) to (300.00000 300.00000 300.00000)
  1 by 1 by 1 MPI processor grid
  reading atoms ...
  93 atoms
  scanning bonds ...
  1 = max bonds/atom
  reading bonds ...
  92 bonds
Finding 1-2 1-3 1-4 neighbors ...
  special bond factors lj:    0        0        0       
  special bond factors coul:  0        0        0       
     2 = max # of 1-2 neighbors
     2 = max # of 1-3 neighbors
     4 = max # of 1-4 neighbors
     6 = max # of special neighbors
  special bonds CPU = 0.000 seconds
  read_data CPU = 0.002 seconds
Setting atom values ...
  1 settings made for charge
Setting atom values ...
  0 settings made for charge
Setting atom values ...
  1 settings made for charge
Setting atom values ...
  0 settings made for charge
Setting atom values ...
  0 settings made for charge
Setting atom values ...
  0 settings made for charge
Setting atom values ...
  8 settings made for charge
Setting atom values ...
  0 settings made for charge
Setting atom values ...
  9 settings made for charge
Setting atom values ...
  0 settings made for charge
Finding 1-2 1-3 1-4 neighbors ...
  special bond factors lj:    0        1        1       
  special bond factors coul:  0        1        1       
     2 = max # of 1-2 neighbors
     6 = max # of special neighbors
  special bonds CPU = 0.000 seconds
New timer settings: style=normal  mode=nosync  timeout=11:50:00

CITE-CITE-CITE-CITE-CITE-CITE-CITE-CITE-CITE-CITE-CITE-CITE-CITE

Your simulation uses code contributions which should be cited:

- neighbor multi command:

@Article{Intveld08,
 author =  {P.{\,}J.~in{\,}'t~Veld and S.{\,}J.~Plimpton and G.{\,}S.~Grest},
 title =   {Accurate and Efficient Methods for Modeling Colloidal
            Mixtures in an Explicit Solvent using Molecular Dynamics},
 journal = {Comp.~Phys.~Comm.},
 year =    2008,
 volume =  179,
 pages =   {320--329}
}

CITE-CITE-CITE-CITE-CITE-CITE-CITE-CITE-CITE-CITE-CITE-CITE-CITE

Neighbor list info ...
  update every 10 steps, delay 0 steps, check yes
  max neighbors/atom: 2000, page size: 100000
  master list distance cutoff = 38.5
  ghost atom cutoff = 38.5
  binsize = 8.7926654, bins = 69 69 69
  2 neighbor lists, perpetual/occasional/extra = 2 0 0
  (1) pair wf/cut, perpetual
      attributes: half, newton on
      pair build: half/multi/newton
      stencil: half/multi/3d/newton
      bin: standard
  (2) pair coul/debye, perpetual, skip from (1)
      attributes: half, newton on
      pair build: skip
      stencil: none
      bin: none
Per MPI rank memory allocation (min/avg/max) = 10.86 | 10.86 | 10.86 Mbytes
Step PotEng Press KinEng Temp Lx Ly Lz Pzz S/CPU Density TotEng E_vdwl E_coul E_pair E_bond E_angle E_dihed E_impro E_mol E_long E_tail Enthalpy Ecouple Econserve 
       0    4235.7942    -2.456218            0            0          600          600          600            0            0 7.6579289e-05    4235.7942  -0.21955288   0.09824065  -0.12131223    4235.9155            0            0            0    4235.9155            0            0   -3501.6325            0    4235.7942 
    1000    29.172582  0.021217833    273.34118     996.7424          600          600          600   0.00868007    20971.835 7.6579289e-05    302.51376   -5.8203587   0.17162405   -5.6487346    34.821317            0            0            0    34.821317            0            0    369.35287            0    302.51376 
    2000    20.273127 0.0063236891    86.369376    314.94713          600          600          600  0.024334644    31093.563 7.6579289e-05     106.6425   -5.4898551   0.50674159   -4.9831136    25.256241            0            0            0    25.256241            0            0      126.563            0     106.6425 
    3000    21.097963 0.0080020413    80.218379    292.51743          600          600          600  0.017725045    33313.244 7.6579289e-05    101.31634   -5.7430107    0.4885446   -5.2544661    26.352429            0            0            0    26.352429            0            0    126.52388            0    101.31634 
    4000    17.443281 0.0057064628    83.349943    303.93673          600          600          600  0.011822012    32731.177 7.6579289e-05    100.79322   -8.4967661   0.75042024   -7.7463458    25.189627            0            0            0    25.189627            0            0    118.76937            0    100.79322 
    5000    22.622015 -0.022493587    83.156263    303.23047          600          600          600 -0.036355738    31098.404 7.6579289e-05    105.77828   -7.5629046   0.72620936   -6.8366952     29.45871            0            0            0     29.45871            0            0    34.920365            0    105.77828 
    6000    19.655525 -0.011279366    73.099859    266.55965          600          600          600 -0.00019996136    31853.215 7.6579289e-05    92.755384   -7.8134594   0.56479776   -7.2486616    26.904187            0            0            0    26.904187            0            0    57.223821            0    92.755384 
    7000    31.271774 -0.005023961    81.547918    297.36562          600          600          600 -0.010707805    33035.901 7.6579289e-05    112.81969   -2.6029019   0.49943189     -2.10347    33.375244            0            0            0    33.375244            0            0    96.993519            0    112.81969 
    8000    33.565727 -0.0035632937    78.823768    287.43196          600          600          600  0.031979513    31620.521 7.6579289e-05    112.38949  -0.19454445    0.5101209   0.31557645    33.250151            0            0            0    33.250151            0            0    101.16463            0    112.38949 
    9000    26.033013 -0.0070365181     101.4655    369.99537          600          600          600 -0.0070345745    31619.567 7.6579289e-05    127.49852   -6.3231606   0.65027556    -5.672885    31.705898            0            0            0    31.705898            0            0    105.33251            0    127.49852 
   10000    28.403454  0.015770089    76.300763    278.23179          600          600          600  0.018924055     31344.05 7.6579289e-05    104.70422   -2.4423486   0.98213866   -1.4602099    29.863664            0            0            0    29.863664            0            0    154.38218            0    104.70422 
   11000    26.944874 0.0062940756    95.237651    347.28542          600          600          600  0.012740646    28917.659 7.6579289e-05    122.18252   -5.9434637    0.4157578   -5.5277059     32.47258            0            0            0     32.47258            0            0    142.00973            0    122.18252 
   12000    20.591758  0.015126372    94.749054    345.50374          600          600          600  0.040558315    30370.179 7.6579289e-05    115.34081   -7.1336733   0.24409693   -6.8895764    27.481335            0            0            0    27.481335            0            0    162.99098            0    115.34081 
   13000    23.489503   0.03383725      81.5394    297.33455          600          600          600  0.029726148    31797.433 7.6579289e-05     105.0289   -4.0129823   0.41415879   -3.5988235    27.088326            0            0            0    27.088326            0            0    211.62092            0     105.0289 
   14000    28.140741 0.00070902927    94.919528    346.12538          600          600          600 -0.0015315256    30746.648 7.6579289e-05    123.06027   -1.9565632   0.39063739   -1.5659258    29.706667            0            0            0    29.706667            0            0    125.29381            0    123.06027 
   15000    26.711438  0.011610779    76.953089    280.61051          600          600          600 0.0099348986    30538.899 7.6579289e-05    103.66453   -3.9234218    0.5326215   -3.3908003    30.102239            0            0            0    30.102239            0            0    140.24009            0    103.66453 
   16000    24.816355  0.032566654    92.379837    336.86436          600          600          600  0.028191486    30714.451 7.6579289e-05    117.19619   -3.9403519   0.49145466   -3.4488972    28.265253            0            0            0    28.265253            0            0    219.78566            0    117.19619 
   17000    21.691393 0.0067150382    89.178424    325.19036          600          600          600  0.020786356    30796.766 7.6579289e-05    110.86982   -6.6795649   0.41172822   -6.2678367    27.959229            0            0            0    27.959229            0            0    132.02312            0    110.86982 
   18000    28.926391 0.0074853774     74.36627    271.17764          600          600          600  0.010933749    32617.907 7.6579289e-05    103.29266   -4.7622644   0.55030705   -4.2119574    33.138348            0            0            0    33.138348            0            0    126.87264            0    103.29266 
   19000    18.125167 8.6375579e-05    82.872884    302.19712          600          600          600 0.0039034474    29863.325 7.6579289e-05    100.99805   -7.6641715     1.110975   -6.5531965    24.678363            0            0            0    24.678363            0            0    101.27015            0    100.99805 
   20000    17.844598 0.0082045217    98.505538    359.20181          600          600          600 -0.0055869382    28571.359 7.6579289e-05    116.35014   -8.2082706   0.85265018   -7.3556204    25.200218            0            0            0    25.200218            0            0    142.19552            0    116.35014 
   21000    20.484706 -0.011348063    68.646468     250.3203          600          600          600 -0.017141986    29243.068 7.6579289e-05    89.131174    -5.021679    1.1756849   -3.8459941      24.3307            0            0            0      24.3307            0            0    53.383206            0    89.131174 
   22000    26.570334  0.012490138     88.70797    323.47484          600          600          600  0.041200514    29358.308 7.6579289e-05     115.2783   -6.8087353    0.8658648   -5.9428705    32.513205            0            0            0    32.513205            0            0    154.62397            0     115.2783 
   23000    21.849393 0.0085618051    86.519068    315.49298          600          600          600  0.010545312    28746.421 7.6579289e-05    108.36846   -6.7991839    0.9550212   -5.8441627    27.693556            0            0            0    27.693556            0            0    135.33933            0    108.36846 
   24000    21.842295 -0.018916762    80.124181    292.17394          600          600          600 -0.018797295    27597.555 7.6579289e-05    101.96648   -7.5337434    1.0049067   -6.5288367    28.371132            0            0            0    28.371132            0            0    42.376056            0    101.96648 
   25000     23.44872 -0.0055727304    81.783589    298.22499          600          600          600 -0.025118007    28525.888 7.6579289e-05    105.23231   -4.1787083   0.93884439    -3.239864    26.688584            0            0            0    26.688584            0            0    87.677437            0    105.23231 
   26000    25.168094 -0.017848121    85.780141    312.79847          600          600          600   -0.0194249    30245.131 7.6579289e-05    110.94823   -5.0057104   0.54835973   -4.4573507    29.625444            0            0            0    29.625444            0            0    54.724183            0    110.94823 
   27000    20.527269 -0.0046533229    96.818713    353.05078          600          600          600 0.0046455651    29842.715 7.6579289e-05    117.34598    -4.665928   0.40129102    -4.264637    24.791906            0            0            0    24.791906            0            0    102.68737            0    117.34598 
   28000    21.389629 -0.022430055    92.811917    338.43994          600          600          600  -0.03615943    27937.814 7.6579289e-05    114.20155   -5.9019426   0.54298745   -5.3589551    26.748585            0            0            0    26.748585            0            0    43.543767            0    114.20155 
   29000    36.611998 -0.016735226    78.718403    287.04775          600          600          600 -0.0071416177    30172.244 7.6579289e-05     115.3304   -1.0019829   0.60519779  -0.39678511    37.008783            0            0            0    37.008783            0            0    62.612121            0     115.3304 
   30000    21.460865 -0.019246369     80.46912    293.43176          600          600          600  -0.02803727    27739.189 7.6579289e-05    101.92999   -6.3009029   0.65863354   -5.6422694    27.103134            0            0            0    27.103134            0            0    41.301257            0    101.92999 
   31000     22.69506 -0.0040459674    80.656392    294.11465          600          600          600 -0.0042475426    30777.783 7.6579289e-05    103.35145   -6.1714749   0.46644945   -5.7050255    28.400086            0            0            0    28.400086            0            0    90.606095            0    103.35145 
   32000    27.860531 -0.011330846    79.147584    288.61276          600          600          600 -0.00095008964    29112.151 7.6579289e-05    107.00812   -8.4241091   0.86643464   -7.5576745    35.418206            0            0            0    35.418206            0            0    71.314382            0    107.00812 
   33000     17.52158 -0.017722314    77.520342      282.679          600          600          600 -0.018493228    27321.608 7.6579289e-05    95.041921   -8.4072995   0.64047961   -7.7668199      25.2884            0            0            0      25.2884            0            0     39.21418            0    95.041921 
   34000    22.626295 -4.2399277e-05    77.124816    281.23671          600          600          600   0.00564926      26986.9 7.6579289e-05    99.751111   -6.3868995   0.51393899   -5.8729605    28.499256            0            0            0    28.499256            0            0    99.617547            0    99.751111 
   35000     18.50676  0.013739413    82.915356      302.352          600          600          600   0.02138775    28119.873 7.6579289e-05    101.42212   -8.8532124   0.44550645   -8.4077059    26.914466            0            0            0    26.914466            0            0    144.70317            0    101.42212 
   36000    20.099397 -0.0081379304      89.2336    325.39156          600          600          600 0.0043697217    27761.588 7.6579289e-05      109.333   -6.3928018   0.34788838   -6.0449134     26.14431            0            0            0     26.14431            0            0     83.69739            0      109.333 
   37000    18.143924 -0.011816872    82.189849    299.70643          600          600          600 -0.0050342541    26411.662 7.6579289e-05    100.33377   -7.6841408   0.80757365   -6.8765671    25.020491            0            0            0    25.020491            0            0     63.10899            0    100.33377 
   38000    20.490776 -0.030806735    75.145002    274.01729          600          600          600 -0.053638202    28235.155 7.6579289e-05    95.635778    -10.67036    0.8348467   -9.8355138     30.32629            0            0            0     30.32629            0            0   -1.4097038            0    95.635778 
   39000    19.145987  0.011042908    80.476601    293.45904          600          600          600 -0.0038069219    27502.731 7.6579289e-05    99.622589   -8.7417831    1.2885647   -7.4532184    26.599206            0            0            0    26.599206            0            0    134.40928            0    99.622589 
   40000    17.325705 -0.00049800099    77.199381    281.50861          600          600          600 0.0064541823    26841.312 7.6579289e-05    94.525086    -10.93897    1.1035765   -9.8353938    27.161099            0            0            0    27.161099            0            0    92.956314            0    94.525086 
   41000    18.498979 0.0099700889    79.405831    289.55447          600          600          600  0.018326069    28894.152 7.6579289e-05     97.90481   -6.2210545    1.2648958   -4.9561586    23.455138            0            0            0    23.455138            0            0    129.31197            0     97.90481 
   42000     20.92319  0.015516917    78.659913    286.83447          600          600          600  0.023577512    29701.758 7.6579289e-05    99.583104   -3.8347361   0.56713796   -3.2675981    24.190789            0            0            0    24.190789            0            0    148.46354            0    99.583104 
   43000    21.129686  0.021168605    83.955073    306.14334          600          600          600  0.038115834    29160.524 7.6579289e-05    105.08476   -8.7299391    1.0668796   -7.6630595    28.792746            0            0            0    28.792746            0            0     171.7688            0    105.08476 
   44000    18.867682  0.029184005    91.095409    332.18067          600          600          600  0.010834612    28412.266 7.6579289e-05    109.96309   -5.5080056    1.0653503   -4.4426553    23.310337            0            0            0    23.310337            0            0    201.89675            0    109.96309 
   45000    31.449147 -0.013940206    82.811693    301.97399          600          600          600 -0.028816319    29941.136 7.6579289e-05    114.26084   -4.9628649   0.67067345   -4.2921914    35.741338            0            0            0    35.741338            0            0    70.347261            0    114.26084 
   46000    27.366433 -0.0029549079    94.995356    346.40189          600          600          600 0.0082076267     31213.89 7.6579289e-05    122.36179   -5.4055338   0.43347224   -4.9720616    32.338494            0            0            0    32.338494            0            0    113.05342            0    122.36179 
   47000    20.870611 -0.0024091509    81.765083    298.15751          600          600          600 -0.012838808    31711.847 7.6579289e-05    102.63569   -3.4351151   0.29980066   -3.1353144    24.005925            0            0            0    24.005925            0            0    95.046535            0    102.63569 
   48000    22.632258 -0.0057401017    84.990336    309.91844          600          600          600  0.022173443    30449.773 7.6579289e-05    107.62259   -8.0034487   0.44637232   -7.5570764    30.189334            0            0            0    30.189334            0            0    89.540478            0    107.62259 
   49000    30.220242 -0.037579199    86.944217    317.04329          600          600          600 -0.038128828    30297.346 7.6579289e-05    117.16446   -7.0063037   0.54170766   -6.4645961    36.684838            0            0            0    36.684838            0            0   -1.2152202            0    117.16446 
   50000    24.734067  0.011071325    90.463865    329.87774          600          600          600  0.009989104    27573.425 7.6579289e-05    115.19793   -1.8898255   0.75290089   -1.1369247    25.870992            0            0            0    25.870992            0            0    150.07414            0    115.19793 
   51000    16.352724 0.0092490561    77.882436    283.99938          600          600          600  0.015897611    28849.038 7.6579289e-05     94.23516   -6.1275422   0.27362944   -5.8539128    22.206637            0            0            0    22.206637            0            0    123.37097            0     94.23516 
   52000    25.520884 -0.025338525    81.944375     298.8113          600          600          600 -0.031796266    29510.751 7.6579289e-05    107.46526   -6.9676201   0.63589726   -6.3317228    31.852607            0            0            0    31.852607            0            0    27.645397            0    107.46526 
   53000    26.021649 0.0030210459    89.412047    326.04227          600          600          600 -0.00098382381    29225.341 7.6579289e-05     115.4337   -4.3999837   0.49888876   -3.9010949    29.922744            0            0            0    29.922744            0            0    124.95041            0     115.4337 
   54000    21.831542  0.018959352    90.068535    328.43616          600          600          600  0.024839837    28306.804 7.6579289e-05    111.90008   -3.6340995   0.56750746   -3.0665921    24.898134            0            0            0    24.898134            0            0    171.62466            0    111.90008 
   55000    31.745723 -0.014185277    93.637664    341.45104          600          600          600 -0.001259828     31244.35 7.6579289e-05    125.38339   -4.8596769   0.69035172   -4.1693252    35.915049            0            0            0    35.915049            0            0      80.6978            0    125.38339 
   56000     27.94479 -0.015991268    82.742804    301.72278          600          600          600 -0.0013774727    29799.038 7.6579289e-05    110.68759   -7.6083478   0.37155443   -7.2367933    35.181584            0            0            0    35.181584            0            0    60.312887            0    110.68759 
   57000    27.224766 0.0070212301    89.121842    324.98404          600          600          600  0.017826999     29371.26 7.6579289e-05    116.34661   -1.4931855   0.28902888   -1.2041567    28.428922            0            0            0    28.428922            0            0    138.46445            0    116.34661 
   58000    28.780118 0.0040271152    77.471294    282.50015          600          600          600 -0.0068821757    30177.671 7.6579289e-05    106.25141   -4.2695829   0.31049968   -3.9590833    32.739201            0            0            0    32.739201            0            0    118.93738            0    106.25141 
   59000    21.548184 -0.021287724    80.554675    293.74374          600          600          600 -0.0067048444    30529.785 7.6579289e-05    102.10286   -6.4101718   0.42331813   -5.9868536    27.535038            0            0            0    27.535038            0            0    35.043581            0    102.10286 
   60000    25.304879 -0.0076693984    83.163846    303.25812          600          600          600 -0.011543066    29066.354 7.6579289e-05    108.46872   -2.2742865    0.4988149   -1.7754716     27.08035            0            0            0     27.08035            0            0    84.309058            0    108.46872 
   61000    22.719341  0.016645716    91.189627    332.52424          600          600          600  0.019674585    27701.631 7.6579289e-05    113.90897    -7.407031    1.3152771    -6.091754    28.811095            0            0            0    28.811095            0            0    166.34528            0    113.90897 
   62000    20.162832  0.020472749    85.001552    309.95934          600          600          600 0.0036707982    26290.808 7.6579289e-05    105.16438   -6.3834902   0.86402135   -5.5194689    25.682301            0            0            0    25.682301            0            0    169.65638            0    105.16438 
   63000    20.615159  0.030522689    97.622476    355.98172          600          600          600  0.025407271    27561.104 7.6579289e-05    118.23764   -5.9689452    0.6857692    -5.283176    25.898335            0            0            0    25.898335            0            0    214.38833            0    118.23764 
   64000    19.312255  0.009314147    79.473701    289.80196          600          600          600  0.024329829    27626.639 7.6579289e-05    98.785956   -7.9209713   0.73388692   -7.1870844    26.499339            0            0            0    26.499339            0            0    128.12681            0    98.785956 
   65000     21.55885 -0.0093966798    79.842727    291.14761          600          600          600 -0.0039107135     29247.35 7.6579289e-05    101.40158   -5.0723966   0.64615618   -4.4262404     25.98509            0            0            0     25.98509            0            0    71.800734            0    101.40158 
   66000    14.353602 0.0093365351    91.222244    332.64318          600          600          600 -0.0054098116    27817.192 7.6579289e-05    105.57585   -8.6364102   0.70897956   -7.9274306    22.281033            0            0            0    22.281033            0            0    134.98722            0    105.57585 
   67000    23.443527 0.0049423515    91.810003    334.78645          600          600          600  0.005698793    27946.377 7.6579289e-05    115.25353   -7.2859211   0.34826648   -6.9376546    30.381182            0            0            0    30.381182            0            0    130.82262            0    115.25353 
   68000    24.916138 0.0013150143    79.172425    288.70335          600          600          600  0.018183524    27221.246 7.6579289e-05    104.08856   -7.0068094   0.56609086   -6.4407185    31.356857            0            0            0    31.356857            0            0    108.23104            0    104.08856 
   69000    34.092803 -0.0013549056    80.256069    292.65487          600          600          600 -0.021478941    27243.524 7.6579289e-05    114.34887   -2.5325297   0.41298351   -2.1195462    36.212349            0            0            0    36.212349            0            0    110.08073            0    114.34887 
   70000    17.103444 -0.0013803158    70.332342    256.46786          600          600          600 -0.0036559823    27652.503 7.6579289e-05    87.435786   -10.662377   0.63915534   -10.023222    27.126665            0            0            0    27.126665            0            0      83.0876            0    87.435786 
   71000    16.418823 0.0016924625    75.747494    276.21429          600          600          600   0.02587654    28502.239 7.6579289e-05    92.166317   -8.5870464   0.84217466   -7.7448718    24.163695            0            0            0    24.163695            0            0    97.497808            0    92.166317 
   72000     18.48488  0.019941821    95.068385    346.66818          600          600          600  0.011820375    27242.639 7.6579289e-05    113.55326   -6.0985318   0.74956658   -5.3489653    23.833846            0            0            0    23.833846            0            0    176.37276            0    113.55326 
   73000     18.30943  -0.01503535    87.797442    320.15459          600          600          600 0.0094184644    25711.578 7.6579289e-05    106.10687   -6.7385725   0.40456323   -6.3340093    24.643439            0            0            0    24.643439            0            0    58.743439            0    106.10687 
   74000    22.035984 0.0016523862    73.964222    269.71156          600          600          600 -0.0062758104    25518.076 7.6579289e-05    96.000206   -6.1854802   0.34858249   -5.8368977    27.872882            0            0            0    27.872882            0            0    101.20545            0    96.000206 
   75000    16.598745  0.014647012    82.949739    302.47737          600          600          600   0.01925711    25021.201 7.6579289e-05    99.548484   -8.2590444   0.66266272   -7.5963817    24.195126            0            0            0    24.195126            0            0     145.6886            0    99.548484 
   76000    29.867622 -0.0041823019     89.15642    325.11012          600          600          600 0.0087365136    27294.938 7.6579289e-05    119.02404   -6.2091576   0.70105422   -5.5081034    35.375725            0            0            0    35.375725            0            0    105.84921            0    119.02404 
   77000     16.17262 -0.00022232471    78.593903    286.59376          600          600          600 -0.023601399    28336.637 7.6579289e-05    94.766523   -8.9517005    0.3541593   -8.5975412    24.770161            0            0            0    24.770161            0            0     94.06617            0    94.766523 
   78000     21.99356 -0.0054365958    82.536434    300.97025          600          600          600 0.0049853037    25165.472 7.6579289e-05    104.52999   -4.3730505   0.45427541   -3.9187751    25.912336            0            0            0    25.912336            0            0    87.403965            0    104.52999 
   79000    20.685249 0.0089840363    76.984449    280.72486          600          600          600  0.013034981    26165.666 7.6579289e-05    97.669698   -7.0712961    0.6488345   -6.4224616    27.107711            0            0            0    27.107711            0            0    125.97066            0    97.669698 
   80000    15.520647 -0.0077466312    89.796065     327.4426          600          600          600 -0.026018154    24182.608 7.6579289e-05    105.31671   -11.246563   0.70339176   -10.543171    26.063818            0            0            0    26.063818            0            0    80.913752            0    105.31671 
   81000     18.70906  0.016248165    95.952376    349.89167          600          600          600 0.0093917735     23559.27 7.6579289e-05    114.66144   -8.5129613   0.77194431    -7.741017    26.450077            0            0            0    26.450077            0            0    165.84541            0    114.66144 
   82000     19.12513 -0.0097270159    77.672857    283.23515          600          600          600 -0.023541539    24666.428 7.6579289e-05    96.797988   -8.5546353   0.73994325   -7.8146921    26.939822            0            0            0    26.939822            0            0    66.156541            0    96.797988 
   83000    20.325715  0.013170607    82.412393    300.51793          600          600          600  0.011306979    26898.461 7.6579289e-05    102.73811     -5.56983   0.91375255   -4.6560775    24.981792            0            0            0    24.981792            0            0    144.22734            0    102.73811 
   84000    26.662903 -0.024316852    88.452934    322.54485          600          600          600 -0.0034639579    27481.467 7.6579289e-05    115.11584   -9.8808761   0.57181509    -9.309061    35.971964            0            0            0    35.971964            0            0    38.514385            0    115.11584 
   85000    27.043276 -0.0072499933    91.420375    333.36566          600          600          600 -0.0062802365     28896.74 7.6579289e-05    118.46365   -6.3171277   0.39777734   -5.9193503    32.962627            0            0            0    32.962627            0            0    95.625168            0    118.46365 
   86000    22.381512 0.0041252817    76.864026    280.28574          600          600          600 0.0049925004    27788.626 7.6579289e-05    99.245537   -6.4347916    0.5133274   -5.9214642    28.302976            0            0            0    28.302976            0            0    112.24075            0    99.245537 
   87000    18.040342 0.0038333656    79.589933    290.22579          600          600          600 -0.00010097236     28491.59 7.6579289e-05    97.630275   -6.6037193    0.5689664   -6.0347529    24.075095            0            0            0    24.075095            0            0    109.70591            0    97.630275 
   88000    25.534589  0.025316598    89.711617    327.13466          600          600          600 0.0057164496    29636.698 7.6579289e-05    115.24621   -5.2558988   0.68608253   -4.5698163    30.104405            0            0            0    30.104405            0            0      194.997            0    115.24621 
   89000    27.888802 -0.012480429    88.482582    322.65296          600          600          600 -0.046792102    28705.892 7.6579289e-05    116.37138       -8.664   0.62188283   -8.0421172    35.930919            0            0            0    35.930919            0            0    77.056306            0    116.37138 
   90000    20.831681  0.010418921    73.231513    267.03973          600          600          600  0.015491008    28259.886 7.6579289e-05    94.063194   -4.8676141   0.45615324   -4.4114608    25.243142            0            0            0    25.243142            0            0    126.88424            0    94.063194 
   91000    14.926171  0.013719897    86.368746    314.94483          600          600          600 -0.0043469661     27297.07 7.6579289e-05    101.29492   -8.9713574   0.53983442   -8.4315229    23.357694            0            0            0    23.357694            0            0    144.51449            0    101.29492 
   92000    20.669679  0.016241383    94.163295    343.36776          600          600          600  0.028848177    28007.212 7.6579289e-05    114.83297   -5.6725859   0.40439612   -5.2681898    25.937869            0            0            0    25.937869            0            0    165.99558            0    114.83297 
   93000    25.002055 -0.015831322    90.850374    331.28715          600          600          600 -0.035450545    26668.769 7.6579289e-05    115.85243   -9.1430099   0.72298228   -8.4200276    33.422083            0            0            0    33.422083            0            0    65.981573            0    115.85243 
   94000    12.669834  0.016477669    81.707893    297.94897          600          600          600 0.0059853106    26952.044 7.6579289e-05    94.377726   -7.6888187   0.55303662   -7.1357821    19.805616            0            0            0    19.805616            0            0    146.28466            0    94.377726 
   95000    20.517136 0.0032309102    82.964649    302.53175          600          600          600 0.0062682812    27702.363 7.6579289e-05    103.48178   -6.7109912    0.6470261   -6.0639651    26.581101            0            0            0    26.581101            0            0     113.6596            0    103.48178 
   96000     11.82787  0.001823986    83.475571    304.39483          600          600          600  0.009782666     27451.43 7.6579289e-05    95.303441   -10.041749    1.0684131   -8.9733355    20.801205            0            0            0    20.801205            0            0    101.04925            0    95.303441 
   97000    14.690243 0.0091124502    86.063802    313.83285          600          600          600  0.012645744    26490.731 7.6579289e-05    100.75404    -7.509224   0.92653205    -6.582692    21.272935            0            0            0    21.272935            0            0    129.45952            0    100.75404 
   98000    23.584141 -0.011847583     92.18988    336.17168          600          600          600 -0.014100433    26123.946 7.6579289e-05    115.77402   -5.6797538   0.63594492   -5.0438089    28.627949            0            0            0    28.627949            0            0    78.452493            0    115.77402 
   99000     25.48972 -0.0027881092    80.228981    292.55609          600          600          600  0.016083217     25859.16 7.6579289e-05     105.7187    -7.228106   0.87914873   -6.3489572    31.838678            0            0            0    31.838678            0            0    96.935771            0     105.7187 
  100000    27.174731  0.022428204    82.101359    299.38374          600          600          600  0.035490697    25518.076 7.6579289e-05    109.27609   -4.9337199   0.93190783    -4.001812    31.176543            0            0            0    31.176543            0            0    179.92804            0    109.27609 
  101000    26.953498 0.0066020144    87.999242    320.89046          600          600          600 -0.018433971    25928.858 7.6579289e-05    114.95274   -5.1597486    1.5165431   -3.6432054    30.596703            0            0            0    30.596703            0            0       135.75            0    114.95274 
  102000    21.724551  0.026010782    81.158694     295.9463          600          600          600  0.038325314    26024.745 7.6579289e-05    102.88324   -7.0253307    1.1801017    -5.845229     27.56978            0            0            0     27.56978            0            0    184.82081            0    102.88324 
  103000    19.479397 0.0091228263    94.814828    345.74359          600          600          600 0.0054375636    25313.859 7.6579289e-05    114.29423    -9.773222    1.6470078   -8.1262142    27.605611            0            0            0    27.605611            0            0    143.03239            0    114.29423 
  104000    20.141437 -0.017738602    86.758289     316.3653          600          600          600 -0.015235887    23247.703 7.6579289e-05    106.89973   -7.8672496   0.67478697   -7.1924627      27.3339            0            0            0      27.3339            0            0    51.020673            0    106.89973 
  105000     18.44994 -0.0029856535    83.270152    303.64577          600          600          600 -0.015080653    23638.405 7.6579289e-05    101.72009   -7.8948273   0.71671613   -7.1781112    25.628051            0            0            0    25.628051            0            0     92.31487            0    101.72009 
  106000    29.355769 -0.0094776515    87.175102    317.88522          600          600          600 -0.020837308    22723.133 7.6579289e-05    116.53087   -5.1445243    1.0386583    -4.105866    33.461635            0            0            0    33.461635            0            0    86.674957            0    116.53087 
  107000     20.96181  0.011642061    82.415402    300.52891          600          600          600  0.019220922    22522.534 7.6579289e-05    103.37721   -5.1072091   0.79984658   -4.3073625    25.269172            0            0            0    25.269172            0            0    140.05131            0    103.37721 
  108000    20.236439 -0.018212497    81.658693    297.76956          600          600          600 -0.016398616    24105.195 7.6579289e-05    101.89513    -4.138651   0.69721424   -3.4414368    23.677876            0            0            0    23.677876            0            0    44.523246            0    101.89513 
  109000    26.634546  -0.01047951    83.717463    305.27689          600          600          600 -0.0053268157    23627.219 7.6579289e-05    110.35201   -8.0724346    1.2652451   -6.8071895    33.441735            0            0            0    33.441735            0            0    77.340102            0    110.35201 
  110000    17.562978  0.019920766    74.273354    270.83882          600          600          600  0.004684479    24020.021 7.6579289e-05    91.836332   -7.4455766    1.0742673   -6.3713094    23.934288            0            0            0    23.934288            0            0     154.5895            0    91.836332 
  111000    25.416349 -0.010148953    90.643256    330.53189          600          600          600 -0.035172493    24948.127 7.6579289e-05    116.05961   -7.3007349    0.5488875   -6.7518475    32.168197            0            0            0    32.168197            0            0    84.088997            0    116.05961 
  112000    27.040736 -0.019304502     77.43775    282.37783          600          600          600 -0.011895451    24336.815 7.6579289e-05    104.47849   -5.6270771    1.4815833   -4.1454938     31.18623            0            0            0     31.18623            0            0    43.666632            0    104.47849 
  113000    21.482213 -0.016357627    77.858682    283.91277          600          600          600 -0.032303848    23912.112 7.6579289e-05    99.340895   -12.371217    1.1635226   -11.207694    32.689907            0            0            0    32.689907            0            0    47.812106            0    99.340895 
  114000    17.074164 -0.0087680961     80.02538    291.81366          600          600          600 -0.012759094    23943.508 7.6579289e-05    97.099545   -12.560107    1.4622311   -11.097876    28.172041            0            0            0    28.172041            0            0    69.478828            0    97.099545 
  115000    22.463541 -0.0042263907    77.061039    281.00415          600          600          600 -0.0082688332    23612.721 7.6579289e-05    99.524579   -7.6586814     1.240738   -6.4179434    28.881484            0            0            0    28.881484            0            0    86.210864            0    99.524579 
  116000    20.457815 -0.0056033201    92.245886     336.3759          600          600          600  0.018414735    23156.702 7.6579289e-05     112.7037   -8.2159806   0.95621454   -7.2597661    27.717581            0            0            0    27.717581            0            0    95.052467            0     112.7037 
  117000    15.782085 0.0066993686    77.566764    282.84828          600          600          600 -0.0038998454    22865.965 7.6579289e-05    93.348849   -8.7314092    1.0369059   -7.6945032    23.476588            0            0            0    23.476588            0            0    114.45279            0    93.348849 
  118000    21.878368  0.018819313    94.922824    346.13739          600          600          600 -0.0040548075    25820.476 7.6579289e-05    116.80119   -8.1878447   0.97710994   -7.2107347    29.089103            0            0            0    29.089103            0            0    176.08463            0    116.80119 
  119000    25.512722  0.021656065    80.197246    292.44037          600          600          600  0.017283681     24142.38 7.6579289e-05    105.70997   -9.0937183   0.69270295   -8.4010153    33.913737            0            0            0    33.913737            0            0    173.92957            0    105.70997 
  120000    16.802096 -0.014805515     83.23779    303.52775          600          600          600 -0.018304525    25045.705 7.6579289e-05    100.03989   -10.889746    0.5630597   -10.326686    27.128783            0            0            0    27.128783            0            0    53.400463            0    100.03989 
  121000    17.038759  0.017428942    85.718025    312.57197          600          600          600  0.006610601      25451.8 7.6579289e-05    102.75678   -5.8758474   0.59267835   -5.2831691    22.321928            0            0            0    22.321928            0            0    157.66036            0    102.75678 
  122000    17.363251 -0.015096452    89.218411    325.33617          600          600          600 -0.034114732    24445.608 7.6579289e-05    106.58166   -10.397136   0.90570919   -9.4914268    26.854678            0            0            0    26.854678            0            0    59.025749            0    106.58166 
  123000    23.042118 -0.022431176    80.283343    292.75433          600          600          600 -0.021785019    24323.266 7.6579289e-05    103.32546   -6.5938818   0.97373189     -5.62015    28.662268            0            0            0    28.662268            0            0    32.664152            0    103.32546 
  124000    17.812823 -0.010909923    79.583637    290.20284          600          600          600 -0.0059755056    25223.889 7.6579289e-05     97.39646   -8.0144545   0.83270473   -7.1817498    24.994573            0            0            0    24.994573            0            0    63.028692            0     97.39646 
  125000    23.665988 -0.018089842     92.70386    338.04591          600          600          600 -0.017380893    24970.703 7.6579289e-05    116.36985   -5.5700455   0.73071071   -4.8393348    28.505323            0            0            0    28.505323            0            0    59.384343            0    116.36985 
  126000    18.587253  0.006926918     89.74203    327.24556          600          600          600  0.015126026    25449.793 7.6579289e-05    108.32928   -10.490921   0.64807348   -9.8428471      28.4301            0            0            0      28.4301            0            0    130.15003            0    108.32928 
  127000    20.875889  0.012478249    79.252943    288.99696          600          600          600  0.014245962    25550.564 7.6579289e-05    100.12883   -4.5711175   0.74310637   -3.8280112      24.7039            0            0            0      24.7039            0            0    139.43704            0    100.12883 
  128000    22.600229 0.0084619871    77.072291    281.04518          600          600          600 -0.010015381    26648.944 7.6579289e-05     99.67252   -5.6744058   0.84997843   -4.8244274    27.424656            0            0            0    27.424656            0            0    126.32895            0     99.67252 
  129000    25.677141 0.0095113582    82.672491    301.46638          600          600          600  0.010230031    28405.916 7.6579289e-05    108.34963   -5.5084756    1.3052064   -4.2032693     29.88041            0            0            0     29.88041            0            0    138.31173            0    108.34963 
  130000    18.032966 -0.0005797164    84.025899    306.40161          600          600          600 -0.012827024    28492.365 7.6579289e-05    102.05887   -6.0035901   0.76336404    -5.240226    23.273192            0            0            0    23.273192            0            0    100.23268            0    102.05887 
  131000     20.95909 -0.011280442    78.576726    286.53112          600          600          600 0.00029007612    27014.537 7.6579289e-05    99.535816   -8.9394256   0.55992441   -8.3795012    29.338591            0            0            0    29.338591            0            0    64.000862            0    99.535816 
  132000    23.356284 0.00097198865    82.600342    301.20329          600          600          600  0.015166767    26483.873 7.6579289e-05    105.95663   -8.3105829   0.72648118   -7.5841018    30.940386            0            0            0    30.940386            0            0    109.01853            0    105.95663 
  133000    18.459677 -0.0050459967    87.958057    320.74028          600          600          600 0.0065931723    26295.752 7.6579289e-05    106.41773   -10.083107   0.28959794   -9.7935087    28.253186            0            0            0    28.253186            0            0    90.522146            0    106.41773 
  134000    28.721211  -0.01058569    84.782474    309.16047          600          600          600 -0.011355742    25987.497 7.6579289e-05    113.50369   -7.5339323   0.50116471   -7.0327676    35.753979            0            0            0    35.753979            0            0    80.157295            0    113.50369 
  135000    16.853787  0.027616668    71.089936    259.23044          600          600          600  0.030291312    25595.001 7.6579289e-05    87.943723   -5.9353511   0.87625477   -5.0590963    21.912883            0            0            0    21.912883            0            0    174.94005            0    87.943723 
  136000    22.139966 0.0054763183    85.891309    313.20385          600          600          600    0.0241168    24488.854 7.6579289e-05    108.03128   -8.0979224   0.81425142    -7.283671    29.423637            0            0            0    29.423637            0            0    125.28244            0    108.03128 
  137000    25.732045   0.01137878    80.915437    295.05926          600          600          600  0.010140013    25166.076 7.6579289e-05    106.64748   -6.4171262   0.48178682   -5.9353394    31.667384            0            0            0    31.667384            0            0    142.49221            0    106.64748 
  138000    21.693559 -0.0015401081    77.577034    282.88573          600          600          600 -0.0036165717    27373.318 7.6579289e-05    99.270593   -8.3485875    1.0343652   -7.3142223    29.007781            0            0            0    29.007781            0            0    94.419039            0    99.270593 
  139000    26.974715 -0.0068115891    81.941766    298.80179          600          600          600 -0.026956472    27332.113 7.6579289e-05    108.91648   -7.1343299   0.38141266   -6.7529172    33.727632            0            0            0    33.727632            0            0    87.459032            0    108.91648 
  140000    25.460428  0.024047352    83.704439     305.2294          600          600          600  0.014184245    27113.378 7.6579289e-05    109.16487   -6.2571049   0.80637299   -5.4507319     30.91116            0            0            0     30.91116            0            0    184.91736            0    109.16487 
  141000    18.217927 -0.010151241    76.406839     278.6186          600          600          600 -0.033694833    26698.137 7.6579289e-05    94.624766   -7.8146639   0.55306194   -7.2616019    25.479529            0            0            0    25.479529            0            0    62.646951            0    94.624766 
  142000     26.15258 -0.0056645581    93.844396    342.20489          600          600          600 -0.0011652432    25819.046 7.6579289e-05    119.99698   -6.1087763   0.97784056   -5.1309358    31.283515            0            0            0    31.283515            0            0    102.15283            0    119.99698 
  143000    25.541787  0.024629042     90.99068    331.79878          600          600          600  0.017595473    25514.816 7.6579289e-05    116.53247   -5.4675588    1.2288235   -4.2387352    29.780522            0            0            0    29.780522            0            0    194.11736            0    116.53247 
  144000    22.405394 -0.020511967    82.824933    302.02227          600          600          600 -0.020483801    23988.836 7.6579289e-05    105.23033   -7.5249471    1.1799805   -6.3449666     28.75036            0            0            0     28.75036            0            0    40.614792            0    105.23033 
  145000    31.577468 -0.026119186    83.467058    304.36378          600          600          600 -0.020570208    24337.944 7.6579289e-05    115.04453   -5.9622571    0.8810819   -5.0811752    36.658644            0            0            0    36.658644            0            0    32.765474            0    115.04453 
  146000    18.263887  0.010206582    73.396298    267.64062          600          600          600  0.022286624     24304.38 7.6579289e-05    91.660185   -9.7779396   0.46955198   -9.3083876    27.572275            0            0            0    27.572275            0            0    123.81233            0    91.660185 
  147000    23.481838 -0.0079399292    77.890425    284.02852          600          600          600 -0.030819882    23887.327 7.6579289e-05    101.37226   -10.704664    0.3969991   -10.307665    33.789503            0            0            0    33.789503            0            0    76.360387            0    101.37226 
  148000     26.90327 -0.0017462362    78.557453    286.46084          600          600          600 -0.0058014992    22739.764 7.6579289e-05    105.46072   -6.9658983   0.65347455   -6.3124237    33.215693            0            0            0    33.215693            0            0    99.959837            0    105.46072 
  149000    20.397141 0.0051896488    79.901094    291.36045          600          600          600  0.013114444    21233.649 7.6579289e-05    100.29823   -11.172794   0.55355945   -10.619235    31.016375            0            0            0    31.016375            0            0    116.64635            0    100.29823 
  150000     18.46795   0.01085285    89.520902    326.43921          600          600          600 0.0031669401    22197.017 7.6579289e-05    107.98885   -7.9169707   0.47102809   -7.4459426    25.913893            0            0            0    25.913893            0            0    142.17683            0    107.98885 
  151000    29.518671 0.0073224518    88.341883     322.1399          600          600          600 0.0068519937    24075.032 7.6579289e-05    117.86055   -6.1666449   0.86371752   -5.3029274    34.821598            0            0            0    34.821598            0            0    140.92729            0    117.86055 
  152000    19.842515 -0.0050779401    84.068146    306.55566          600          600          600 -0.016491979    23761.339 7.6579289e-05    103.91066   -5.1314111   0.98803851   -4.1433726    23.985887            0            0            0    23.985887            0            0    87.914446            0    103.91066 
  153000    27.360214 -0.001332039    89.927406    327.92153          600          600          600 -0.024531336    25551.965 7.6579289e-05    117.28762   -5.6303697   0.64157072    -4.988799    32.349013            0            0            0    32.349013            0            0    113.09151            0    117.28762 
  154000    20.834483 -0.0033215944    81.483072    297.12915          600          600          600  0.011283038    27156.915 7.6579289e-05    102.31756   -5.6990744   0.42095199   -5.2781224    26.112606            0            0            0    26.112606            0            0    91.854074            0    102.31756 
  155000    23.808377 -0.010805192    81.396304    296.81275          600          600          600 -0.011662049    26848.529 7.6579289e-05    105.20468   -4.5185266   0.36381229   -4.1547143    27.963091            0            0            0    27.963091            0            0     71.16683            0    105.20468 
  156000    18.986069 -0.020478486    82.119232    299.44892          600          600          600 -0.032611693    25969.958 7.6579289e-05     101.1053   -9.2529356   0.45771198   -8.7952236    27.781293            0            0            0    27.781293            0            0    36.595236            0     101.1053 
  157000    19.176762 -0.011188167    83.864847    305.81433          600          600          600 -0.036568793    24617.205 7.6579289e-05    103.04161   -11.370794   0.88037797   -10.490416    29.667178            0            0            0    29.667178            0            0    67.797333            0    103.04161 
  158000     15.78916  0.016059913    81.618049    297.62135          600          600          600  0.024913282    23039.423 7.6579289e-05    97.407209   -9.9523377   0.77486497   -9.1774727    24.966633            0            0            0    24.966633            0            0    147.99816            0    97.407209 
  159000    17.082574 0.0058367948    80.830577    294.74982          600          600          600 0.0042800267    22645.351 7.6579289e-05     97.91315    -10.21749   0.73260726   -9.4848831    26.567457            0            0            0    26.567457            0            0    116.29986            0     97.91315 
  160000    20.061556 -0.0032775737    80.218203    292.51679          600          600          600 0.0013975159     22866.09 7.6579289e-05    100.27976   -9.2915813    1.4071384   -7.8844429    27.945999            0            0            0    27.945999            0            0    89.954948            0    100.27976 
  161000    18.614184 -0.00025105486    71.944835    262.34784          600          600          600 -0.0018250362    22579.521 7.6579289e-05    90.559019   -9.2659656   0.85759122   -8.4083744    27.022558            0            0            0    27.022558            0            0    89.768162            0    90.559019 
  162000    17.524654 -0.00061411506    86.134996    314.09246          600          600          600 -0.0022148804    23624.425 7.6579289e-05    103.65965   -11.684375   0.62152298   -11.062852    28.587506            0            0            0    28.587506            0            0     101.7251            0    103.65965 
  163000    17.651655  0.013990008    93.703098    341.68965          600          600          600  0.029638146    23827.617 7.6579289e-05    111.35475   -9.2791646    1.2930712   -7.9860933    25.637748            0            0            0    25.637748            0            0    155.42521            0    111.35475 
  164000    18.450055  0.012541085    88.849058    323.98932          600          600          600  0.032507504    24895.558 7.6579289e-05    107.29911   -11.765295   0.85439529   -10.910899    29.360954            0            0            0    29.360954            0            0    146.80527            0    107.29911 
  165000    19.927034 -0.015029091    71.133387    259.38888          600          600          600 0.0085073672    25344.605 7.6579289e-05     91.06042   -11.663241   0.27327383   -11.389968    31.317001            0            0            0    31.317001            0            0    43.716704            0     91.06042 
  166000    30.526786 -0.0097544963    72.116099    262.97235          600          600          600 -0.025386804     25942.33 7.6579289e-05    102.64288   -4.7200162    1.0603018   -3.6597144      34.1865            0            0            0      34.1865            0            0    71.914871            0    102.64288 
  167000    20.629334  0.016797622    82.876538    302.21044          600          600          600  0.020017959    26555.472 7.6579289e-05    103.50587   -7.3687522    1.0630119   -6.3057402    26.935075            0            0            0    26.935075            0            0    156.42071            0    103.50587 
  168000    26.422682 -0.028054281    85.148174      310.494          600          600          600 -0.024704127    24259.536 7.6579289e-05    111.57086   -8.7892499   0.65535597   -8.1338939    34.556576            0            0            0    34.556576            0            0    23.195987            0    111.57086 
  169000    16.241956 0.0078527652    72.142073    263.06707          600          600          600  0.018094558    24737.713 7.6579289e-05    88.384029   -7.8775703   0.87609084   -7.0014795    23.243436            0            0            0    23.243436            0            0    113.12133            0    88.384029 
  170000    17.703493 -0.0010862154    82.911739    302.33881          600          600          600  0.015850556    24574.368 7.6579289e-05    100.61523   -8.7770391   0.75142911     -8.02561    25.729103            0            0            0    25.729103            0            0    97.193503            0    100.61523 
  171000     20.41971 -0.018777654    79.408555     289.5644          600          600          600 -0.029741847    24436.065 7.6579289e-05    99.828265   -7.1585134   0.51003668   -6.6484768    27.068187            0            0            0    27.068187            0            0    40.676054            0    99.828265 
  172000    16.590692  0.005539388    89.761502    327.31656          600          600          600  0.021815255    23319.827 7.6579289e-05    106.35219   -9.0913922    1.1347007   -7.9566915    24.547384            0            0            0    24.547384            0            0    123.80203            0    106.35219 
  173000    20.000113  0.021610504    88.568922     322.9678          600          600          600  0.024812433    22416.966 7.6579289e-05    108.56904   -8.6105346    1.0200309   -7.5905036    27.590617            0            0            0    27.590617            0            0    176.64511            0    108.56904 
  174000    16.734029 -0.027780752    71.002229    258.91061          600          600          600 -0.029268922    22829.002 7.6579289e-05    87.736258   -10.275797    1.1355642   -9.1402326    25.874261            0            0            0    25.874261            0            0   0.22304426            0    87.736258 
  175000    21.209276  -0.03727677    69.930656    255.00311          600          600          600 -0.060414637    24277.088 7.6579289e-05    91.139932   -8.3065593   0.50567366   -7.8008857    29.010162            0            0            0    29.010162            0            0   -26.287055            0    91.139932 
  176000    19.591327 -0.030530081    93.866061    342.28389          600          600          600 -0.041552899    25454.426 7.6579289e-05    113.45739   -11.179427   0.92975214   -10.249675    29.841002            0            0            0    29.841002            0            0    17.283405            0    113.45739 
  177000    26.585723  0.016232582    86.058644    313.81404          600          600          600  0.011986785    24496.005 7.6579289e-05    112.64437   -5.1085607   0.95436421   -4.1541964    30.739919            0            0            0    30.739919            0            0    163.77925            0    112.64437 
  178000     14.75924 -0.002883722    83.539074    304.62639          600          600          600 0.0030941714    24201.864 7.6579289e-05    98.298314   -8.8658646   0.52638715   -8.3394774    23.098717            0            0            0    23.098717            0            0     89.21419            0    98.298314 
  179000    21.331881 0.0037666919    88.311684    322.02978          600          600          600  0.013346371    24881.823 7.6579289e-05    109.64356   -7.8853082   0.72816019    -7.157148    28.489029            0            0            0    28.489029            0            0    121.50917            0    109.64356 
  180000     26.93609  0.011638729    82.884085    302.23797          600          600          600  0.022062608    23772.247 7.6579289e-05    109.82018   -5.9977019    1.0117947   -4.9859073    31.921997            0            0            0    31.921997            0            0    146.48378            0    109.82018 
  181000    27.583505 0.0035609447    88.389638    322.31404          600          600          600 0.0075131709    23300.783 7.6579289e-05    115.97314   -6.1477601    1.0150096   -5.1327505    32.716256            0            0            0    32.716256            0            0    127.19061            0    115.97314 
  182000    20.066287 0.0054541788    86.960177    317.10149          600          600          600 0.0089033355    23783.975 7.6579289e-05    107.02646   -10.082066   0.79689431   -9.2851715    29.351458            0            0            0    29.351458            0            0    124.20788            0    107.02646 
  183000    23.674308 -0.005163119    81.548824    297.36892          600          600          600 -0.025717323    23458.863 7.6579289e-05    105.22313    -9.835301    0.8250971   -9.0102039    32.684512            0            0            0    32.684512            0            0    88.958592            0    105.22313 
  184000     18.24131 -0.0073262404    82.601468     301.2074          600          600          600 -0.011595028    23311.532 7.6579289e-05    100.84278   -9.5667382   0.77166053   -8.7950777    27.036388            0            0            0    27.036388            0            0    77.764106            0    100.84278 
  185000    18.479633  0.017430908     92.57914    337.59112          600          600          600  0.037195402    23475.932 7.6579289e-05    111.05877   -10.015649   0.57895337   -9.4366955    27.916329            0            0            0    27.916329            0            0    165.96855            0    111.05877 
  186000    20.530306  0.015173167    84.263472    307.26792          600          600          600  0.011380989    24930.777 7.6579289e-05    104.79378    -6.602135   0.51263926   -6.0894958    26.619802            0            0            0    26.619802            0            0    152.59135            0    104.79378 
  187000    29.254156 -0.002694187    83.686596    305.16434          600          600          600 -0.0092982186    25712.839 7.6579289e-05    112.94075   -7.0722869   0.55796479   -6.5143221    35.768479            0            0            0    35.768479            0            0    104.45369            0    112.94075 
  188000    13.367763  0.014768584     103.9531    379.06642          600          600          600 -0.0074208649    24273.014 7.6579289e-05    117.32086   -9.0020523    1.0773401   -7.9247122    21.292475            0            0            0    21.292475            0            0    163.84395            0    117.32086 
  189000    23.836102 0.0023844455    93.317771    340.28455          600          600          600 -0.013143386    23866.394 7.6579289e-05    117.15387   -7.4256467   0.42261009   -7.0030366    30.839138            0            0            0    30.839138            0            0    124.66521            0    117.15387 
  190000     18.64128 0.0080860481    84.191418    307.00518          600          600          600  0.012294061    24940.116 7.6579289e-05     102.8327   -6.8743654   0.73858493   -6.1357805     24.77706            0            0            0     24.77706            0            0    128.30487            0     102.8327 
  191000    17.229454 -0.016653118    79.624993    290.35364          600          600          600 0.0082290507    24098.686 7.6579289e-05    96.854447   -8.4185127     1.067357   -7.3511557    24.580609            0            0            0    24.580609            0            0    44.394819            0    96.854447 
  192000    19.844238 -0.035028019    83.834475    305.70358          600          600          600 -0.030140224    22770.256 7.6579289e-05    103.67871    -9.964895       1.1674    -8.797495    28.641733            0            0            0    28.641733            0            0   -6.6643955            0    103.67871 
  193000    24.295142 -0.0028393033     84.05202    306.49686          600          600          600 -0.025006978    23298.065 7.6579289e-05    108.34716   -9.0931173   0.99959816   -8.0935191    32.388662            0            0            0    32.388662            0            0    99.402964            0    108.34716 
  194000    22.678396 -0.015415317    80.821315    294.71605          600          600          600 0.0037231455    23017.676 7.6579289e-05    103.49971    -6.127852   0.97044947   -5.1574025    27.835798            0            0            0    27.835798            0            0    54.939329            0    103.49971 
  195000    20.043092 0.0062388363    75.052617    273.68041          600          600          600 0.0069930451    23728.673 7.6579289e-05    95.095709   -8.0493114   0.65424662   -7.3950648    27.438157            0            0            0    27.438157            0            0    114.74891            0    95.095709 
  196000    15.993273  0.009973973    75.875936    276.68265          600          600          600  0.030453669    25307.444 7.6579289e-05    91.869208   -6.8913394   0.49050918   -6.4008302    22.394103            0            0            0    22.394103            0            0     123.2886            0    91.869208 
  197000    20.369225 -0.018112761    93.540225    341.09573          600          600          600 -0.023766511    25944.416 7.6579289e-05    113.90945    -9.330237   0.47881666   -8.8514203    29.220646            0            0            0    29.220646            0            0    56.851746            0    113.90945 
  198000     24.56428 -0.0034919276     86.19378    314.30682          600          600          600  0.013172265    26015.221 7.6579289e-05    110.75806   -7.4093268   0.48539603   -6.9239308    31.488211            0            0            0    31.488211            0            0    99.758006            0    110.75806 
  199000    18.853055 0.0022427893    90.558462    330.22269          600          600          600 -0.013830016    25227.075 7.6579289e-05    109.41152   -5.7751099   0.72147622   -5.0536336    23.906689            0            0            0    23.906689            0            0    116.47661            0    109.41152 
  200000    22.014008 -0.0035479327    75.145003     274.0173          600          600          600 -0.028330885    24170.901 7.6579289e-05    97.159011   -8.7322215   0.49556973   -8.2366517     30.25066            0            0            0     30.25066            0            0    85.982532            0    97.159011 
  201000    17.264726  0.018449362    88.056642    321.09977          600          600          600  0.015925506    25471.276 7.6579289e-05    105.32137   -4.2355268   0.36423406   -3.8712927    21.136019            0            0            0    21.136019            0            0    163.43941            0    105.32137 
  202000     26.97632   0.00358698    75.869363    276.65869          600          600          600 0.0040867593    25739.348 7.6579289e-05    102.84568   0.44333352   0.78343369    1.2267672    25.749552            0            0            0    25.749552            0            0    114.14517            0    102.84568 
  203000    29.031897  0.019547861    86.902641    316.89169          600          600          600 -0.0048363166    28013.572 7.6579289e-05    115.93454   -3.0647207   0.39179007   -2.6729307    31.704828            0            0            0    31.704828            0            0    177.51301            0    115.93454 
  204000    30.290061  0.015147537    78.826999    287.44374          600          600          600  0.024184871    27522.402 7.6579289e-05    109.11706   -7.8672702   0.59251844   -7.2747518    37.564812            0            0            0    37.564812            0            0     156.8339            0    109.11706 
  205000    17.420286 -0.0028401736    86.997018    317.23583          600          600          600 -0.0032186128    26660.971 7.6579289e-05     104.4173   -7.4863512   0.49708332   -6.9892679    24.409554            0            0            0    24.409554            0            0    95.470364            0     104.4173 
  206000    16.824351  0.026577482    85.002758    309.96374          600          600          600  0.029396872    25722.142 7.6579289e-05    101.82711   -7.9662046    0.7253264   -7.2408782    24.065229            0            0            0    24.065229            0            0    185.54986            0    101.82711 
  207000    16.833168 0.0056285167    84.555316    308.33213          600          600          600 0.0044024669    23013.382 7.6579289e-05    101.38848   -9.5119375    0.7913359   -8.7206016     25.55377            0            0            0     25.55377            0            0    119.11909            0    101.38848 
  208000    25.019267 -0.015679236    83.472646    304.38416          600          600          600 -0.020553407    22941.633 7.6579289e-05    108.49191   -8.1766725   0.58324213   -7.5934304    32.612697            0            0            0    32.612697            0            0    59.100149            0    108.49191 
  209000     20.06715 0.0029856413    78.714861    287.03483          600          600          600 -0.0082723447    23263.304 7.6579289e-05    98.782011   -9.6350735   0.52198525   -9.1130882    29.180238            0            0            0    29.180238            0            0    108.18719            0    98.782011 
  210000    18.342904 -0.011651048    94.228864    343.60686          600          600          600 0.0021616684    21857.514 7.6579289e-05    112.57177   -10.698146   0.98499886   -9.7131475    28.056051            0            0            0    28.056051            0            0    75.869354            0    112.57177 
  211000     25.83896 -0.019283069     78.55078    286.43651          600          600          600 -0.029465443    22708.616 7.6579289e-05    104.38974   -9.4252869   0.55423959   -8.8710473    34.710007            0            0            0    34.710007            0            0    43.645402            0    104.38974 
  212000    23.981857 -0.017888382    96.069818    350.31992          600          600          600 -0.012342773    22547.961 7.6579289e-05    120.05167    -9.694098   0.98915819   -8.7049398    32.686796            0            0            0    32.686796            0            0    63.700794            0    120.05167 
  213000    11.764134 -0.018892261    78.844292    287.50681          600          600          600 -0.0078623577    22083.304 7.6579289e-05    90.608426   -13.077501   0.84776481   -12.229736     23.99387            0            0            0     23.99387            0            0    31.095189            0    90.608426 
  214000    21.919123  0.007344746    73.316439    267.34941          600          600          600 0.0061050534    23421.398 7.6579289e-05    95.235562   -7.6027839   0.78782876   -6.8149551    28.734078            0            0            0    28.734078            0            0    118.37253            0    95.235562 
  215000    26.437681 -0.011586341    78.632987    286.73628          600          600          600 -0.0078551162    23971.013 7.6579289e-05    105.07067   -6.9770848   0.47386736   -6.5032174    32.940899            0            0            0    32.940899            0            0    68.572091            0    105.07067 
  216000    30.105029 0.0095915476    70.128456    255.72439          600          600          600  0.024801537    24707.257 7.6579289e-05    100.23348   -1.7443573   0.41760975   -1.3267476    31.431777            0            0            0    31.431777            0            0    130.44819            0    100.23348 
  217000      29.5844 -0.0035127362    76.573753    279.22725          600          600          600 0.0066203364    24276.526 7.6579289e-05    106.15815   -7.1008307   0.57313862   -6.5276921    36.112092            0            0            0    36.112092            0            0    95.092548            0    106.15815 
  218000      26.9453 -0.028695624    74.041398    269.99299          600          600          600 -0.040941696    26346.296 7.6579289e-05     100.9867   -6.4757635   0.53818024   -5.9375832    32.882883            0            0            0    32.882883            0            0    10.591512            0     100.9867 
  219000    26.994583  0.010704099    93.002062    339.13331          600          600          600 0.0025315187    25050.192 7.6579289e-05    119.99665   -6.9322844   0.69887352   -6.2334109    33.227994            0            0            0    33.227994            0            0    153.71604            0    119.99665 
  220000    20.182377 -0.0096211068    88.044972    321.05721          600          600          600 -0.0047298737    25800.464 7.6579289e-05    108.22735   -5.8260252   0.56451689   -5.2615083    25.443885            0            0            0    25.443885            0            0     77.91953            0    108.22735 
  221000    25.907603 0.00063747246    83.314688    303.80817          600          600          600  0.016195038    25218.733 7.6579289e-05    109.22229   -9.4384492    1.0596494   -8.3787997    34.286402            0            0            0    34.286402            0            0    111.23042            0    109.22229 
  222000    21.257104 -0.021453083    77.080612    281.07552          600          600          600  -0.02400979    24032.683 7.6579289e-05    98.337716   -8.4936127    1.1648269   -7.3287858    28.585889            0            0            0    28.585889            0            0    30.757534            0    98.337716 
  223000    16.214035  0.016904037    79.110812    288.47867          600          600          600  0.014092439    24383.078 7.6579289e-05    95.324847   -6.2827673   0.90270055   -5.3800667    21.594102            0            0            0    21.594102            0            0     148.5749            0    95.324847 
  224000    23.655937 -0.0039993708    77.467837    282.48754          600          600          600 -0.010001981    24275.402 7.6579289e-05    101.12377   -7.2020586    1.1980362   -6.0040224    29.659959            0            0            0    29.659959            0            0    88.525202            0    101.12377 
  225000    18.463178 0.0051129073    90.494912    329.99095          600          600          600  0.013738889    22691.661 7.6579289e-05    108.95809   -8.7631837   0.86343094   -7.8997528    26.362931            0            0            0    26.362931            0            0    125.06446            0    108.95809 
  226000    21.135352 0.0083279281    86.819679    316.58916          600          600          600  0.018897425    20770.153 7.6579289e-05    107.95503   -9.3596697    0.9612294   -8.3984403    29.533792            0            0            0    29.533792            0            0    134.18916            0    107.95503 
  227000    12.455158 -0.0011740165    90.273148    329.18229          600          600          600 -0.00060070384    19071.607 7.6579289e-05    102.72831   -13.641357    1.6480963   -11.993261    24.448419            0            0            0    24.448419            0            0    99.029992            0    102.72831 
  228000    23.593924 0.0048536404    85.009358     309.9878          600          600          600 -0.029137326    18611.903 7.6579289e-05    108.60328   -6.7051537    1.2849228   -5.4202309    29.014155            0            0            0    29.014155            0            0    123.89292            0    108.60328 
  229000     21.65756 -0.014921902     69.13049    252.08529          600          600          600  0.020953998    18450.207 7.6579289e-05     90.78805   -8.4187469   0.90615627   -7.5125906    29.170151            0            0            0    29.170151            0            0    43.781993            0     90.78805 
  230000    21.588954 -0.0094288735    92.010795    335.51864          600          600          600  -0.02155112    19349.902 7.6579289e-05    113.59975   -12.223122    1.0231386   -11.199984    32.788938            0            0            0    32.788938            0            0    83.897492            0    113.59975 
  231000    18.575754 0.0033042913     88.08965    321.22013          600          600          600 -0.0014586233    20863.759 7.6579289e-05     106.6654   -8.4935269   0.56123583   -7.9322911    26.508045            0            0            0    26.508045            0            0    117.07438            0     106.6654 
  232000    20.272497 -0.020493576     98.26367    358.31984          600          600          600 -0.038622766     20645.73 7.6579289e-05    118.53617   -9.5424272   0.57680993   -8.9656173    29.238114            0            0            0    29.238114            0            0    53.978567            0    118.53617 
  233000     19.41724  0.020080133    83.397655    304.11071          600          600          600 0.0089294922    24260.659 7.6579289e-05     102.8149   -7.3742294    0.5065309   -6.8676985    26.284939            0            0            0    26.284939            0            0    166.07009            0     102.8149 
  234000    20.703851  0.017863874    81.318299    296.52831          600          600          600  0.020139318    23644.001 7.6579289e-05    102.02215   -7.0100485    1.0228261   -5.9872223    26.691073            0            0            0    26.691073            0            0    158.29583            0    102.02215 
  235000    24.563887  0.026564133    101.08322    368.60137          600          600          600  0.038521707    23472.517 7.6579289e-05    125.64711   -6.4124165   0.96097912   -5.4514374    30.015324            0            0            0    30.015324            0            0    209.32781            0    125.64711 
  236000    20.834193 0.0079463362    80.144959    292.24971          600          600          600  0.027222986    23347.606 7.6579289e-05    100.97915   -3.9232446   0.30083684   -3.6224078    24.456601            0            0            0    24.456601            0            0    126.01121            0    100.97915 
  237000    27.910251 -0.0082788192    82.948707    302.47361          600          600          600 0.0074126717    23065.397 7.6579289e-05    110.85896   -7.6333121   0.42128899   -7.2120231    35.122275            0            0            0    35.122275            0            0    84.779532            0    110.85896 
[...]
 4943000    24.351243 0.0016643418    99.390916    362.43035          600          600          600  0.010136972    24313.678 7.6579289e-05    123.74216   -7.7970851    0.8561535   -6.9409316    31.292174            0            0            0    31.292174            0            0    128.98507            0    123.74216 
 4944000    17.444353  -0.00272179    80.738863    294.41538          600          600          600 -0.0027392479     23102.24 7.6579289e-05    98.183216   -8.7644186   0.94266225   -7.8217564    25.266109            0            0            0    25.266109            0            0      89.6092            0    98.183216 
 4945000    24.429984 0.0042680436    85.682517    312.44249          600          600          600 -0.0056037499     22421.52 7.6579289e-05     110.1125   -7.2870634    1.0751847   -6.2118787    30.641862            0            0            0    30.641862            0            0    123.55743            0     110.1125 
 4946000    15.851473 -0.0092064778    94.865856    345.92966          600          600          600  -0.02647158    21663.674 7.6579289e-05    110.71733   -12.292527   0.87666269   -11.415865    27.267337            0            0            0    27.267337            0            0    81.715649            0    110.71733 
 4947000    22.056553 0.0098055229    74.956237    273.32896          600          600          600 -0.0042295906    21602.085 7.6579289e-05     97.01279   -10.981326   0.84263425   -10.138691    32.195244            0            0            0    32.195244            0            0    127.90154            0     97.01279 
 4948000    24.257769 -0.019918144    77.378781     282.1628          600          600          600 -0.011523966     23850.38 7.6579289e-05    101.63655   -6.4538235   0.87717053    -5.576653    29.834422            0            0            0    29.834422            0            0    38.891639            0    101.63655 
 4949000    15.670773 -0.0028460819    82.436123    300.60447          600          600          600 -0.019958557    23932.032 7.6579289e-05    98.106896   -10.130809   0.70509971   -9.4257097    25.096482            0            0            0    25.096482            0            0    89.141344            0    98.106896 
 4950000    13.622865 -0.0058827475    91.002965    331.84358          600          600          600 0.0082875435    23111.278 7.6579289e-05    104.62583   -9.0155879    0.7263651   -8.2892228    21.912088            0            0            0    21.912088            0            0    86.094361            0    104.62583 
 4951000    19.518269 -0.0052384228      86.2194    314.40024          600          600          600 -0.026360942    23191.016 7.6579289e-05    105.73767   -10.300543   0.79863611   -9.5019073    29.020176            0            0            0    29.020176            0            0    89.235912            0    105.73767 
 4952000    16.866136 -0.022949842    77.395977     282.2255          600          600          600 -0.013728397    21720.328 7.6579289e-05    94.262113   -11.231766   0.69524116   -10.536525    27.402662            0            0            0    27.402662            0            0    21.966934            0    94.262113 
 4953000    19.362117  -0.02643727    81.251003    296.28291          600          600          600 -0.017430891    23752.861 7.6579289e-05    100.61312   -9.2678621   0.94532086   -8.3225412    27.684659            0            0            0    27.684659            0            0    17.332059            0    100.61312 
 4954000    24.261536 -0.012305949    91.245975    332.72972          600          600          600 -0.0061071581    24316.779 7.6579289e-05    115.50751   -6.4965171   0.90663105   -5.5898861    29.851422            0            0            0    29.851422            0            0    76.742069            0    115.50751 
 4955000    19.279623 0.0098399069    79.040947    288.22391          600          600          600  0.011239684    23367.768 7.6579289e-05    98.320569   -6.7709059   0.82263214   -5.9482738    25.227896            0            0            0    25.227896            0            0    129.31764            0    98.320569 
 4956000    22.733464 0.0015684181    82.261149    299.96642          600          600          600  0.016006121    23952.669 7.6579289e-05    104.99461   -9.7809471   0.88192925   -8.8990178    31.632482            0            0            0    31.632482            0            0    109.93535            0    104.99461 
 4957000    26.427757 -0.0065432042    84.832263    309.34202          600          600          600 -0.0088788618    23483.556 7.6579289e-05    111.26002   -4.0587213   0.68572723   -3.3729941    29.800751            0            0            0    29.800751            0            0    90.648021            0    111.26002 
 4958000    22.260521 -0.0031064646    91.478819    333.57878          600          600          600 -0.038291151    22202.892 7.6579289e-05    113.73934   -8.5644268   0.76845623   -7.7959705    30.056492            0            0            0    30.056492            0            0    103.95355            0    113.73934 
 4959000    19.080059 -0.0037494574    85.841855    313.02351          600          600          600 -0.0085181671    24115.035 7.6579289e-05    104.92191   -5.2852711    0.4683294   -4.8169417       23.897            0            0            0       23.897            0            0    93.110603            0    104.92191 
 4960000    24.628015 0.0048247585    77.014196    280.83333          600          600          600 0.0067884206    24410.467 7.6579289e-05    101.64221   -7.8775041   0.81062949   -7.0668746     31.69489            0            0            0     31.69489            0            0    116.84087            0    101.64221 
 4961000     19.34667  0.053885449    89.688889    327.05178          600          600          600  0.053053601    22258.389 7.6579289e-05    109.03556   -9.2912201    1.5370359   -7.7541842    27.100854            0            0            0    27.100854            0            0    278.78218            0    109.03556 
 4962000    15.624076 0.0056342504    83.931924    306.05893          600          600          600 -0.0073995608    21230.532 7.6579289e-05       99.556   -12.709885    1.1168336   -11.593051    27.217127            0            0            0    27.217127            0            0    117.30467            0       99.556 
 4963000    18.643685 -0.0019397922    85.343866    311.20759          600          600          600 -0.0072525593    22432.552 7.6579289e-05    103.98755   -10.584599   0.60763014   -9.9769687    28.620654            0            0            0    28.620654            0            0    97.876937            0    103.98755 
 4964000    23.886492 -0.010349588    90.207084    328.94138          600          600          600 -0.027748515    23670.288 7.6579289e-05    114.09358   -6.7092562   0.72230165   -5.9869545    29.873447            0            0            0    29.873447            0            0    81.490943            0    114.09358 
 4965000    24.584203  0.020308278    78.226575    285.25429          600          600          600  0.010923111    23944.055 7.6579289e-05    102.81078   -4.1201758   0.68624201   -3.4339338    28.018137            0            0            0    28.018137            0            0    166.78466            0    102.81078 
 4966000    23.232155 -0.030678155    77.509793    282.64053          600          600          600 -0.037597244    23785.189 7.6579289e-05    100.74195   -7.8294544   0.65811827   -7.1713361    30.403491            0            0            0    30.403491            0            0    4.1015116            0    100.74195 
 4967000     13.97912 -0.015922949    70.289893    256.31307          600          600          600 -0.025972493    22039.557 7.6579289e-05    84.269013   -8.1193807   0.53688502   -7.5824957    21.561616            0            0            0    21.561616            0            0    34.109519            0    84.269013 
 4968000    15.874084 -0.0044176472    83.794215    305.55677          600          600          600 -0.023482317    22097.032 7.6579289e-05    99.668299   -9.6039267   0.69228525   -8.9116414    24.785726            0            0            0    24.785726            0            0    85.752099            0    99.668299 
 4969000    18.061926 -7.6721603e-06    90.912924    331.51524          600          600          600   0.02516605    23475.801 7.6579289e-05    108.97485   -8.8841847   0.30484931   -8.5793354    26.641261            0            0            0    26.641261            0            0    108.95068            0    108.97485 
 4970000    25.097363 -0.014142003    80.677646    294.19216          600          600          600 -0.017157127    23886.238 7.6579289e-05    105.77501   -7.5565382   0.84660763   -6.7099306    31.807293            0            0            0    31.807293            0            0     61.22574            0    105.77501 
 4971000    17.446777 0.00048496427    96.028653    350.16982          600          600          600  0.020302705     24256.59 7.6579289e-05    113.47543   -12.025089   0.62538895     -11.3997    28.846477            0            0            0    28.846477            0            0    115.00314            0    113.47543 
 4972000    17.626015 -0.015865688     70.55389    257.27574          600          600          600  -0.01813372    22981.606 7.6579289e-05    88.179905   -8.8471938   0.89757459   -7.9496193    25.575634            0            0            0    25.575634            0            0    38.200792            0    88.179905 
 4973000    15.096079 0.0071702977    82.545364    301.00282          600          600          600  0.026789265    23248.862 7.6579289e-05    97.641443   -7.7368352   0.81204243   -6.9247928    22.020872            0            0            0    22.020872            0            0    120.22887            0    97.641443 
 4974000    25.557447 0.0011857403    83.102307    303.03372          600          600          600  0.014126208    23228.776 7.6579289e-05    108.65975   -9.0386785   0.38444157   -8.6542369    34.211684            0            0            0    34.211684            0            0      112.395            0    108.65975 
 4975000    14.262695  0.026198468    89.505617    326.38348          600          600          600  0.005884323    22222.656 7.6579289e-05    103.76831   -11.299671    0.7886346   -10.511036    24.773731            0            0            0    24.773731            0            0    186.29711            0    103.76831 
 4976000     22.07367 0.0013517797    90.901196    331.47247          600          600          600 -0.0033158998    22642.906 7.6579289e-05    112.97487   -11.784007     1.548429   -10.235578    32.309248            0            0            0    32.309248            0            0    117.23316            0    112.97487 
 4977000    15.720946 -0.0021088745    79.572849     290.1635          600          600          600 0.0064831235    22172.962 7.6579289e-05    95.293795   -8.6366836    1.3594444   -7.2772392    22.998185            0            0            0    22.998185            0            0    88.650549            0    95.293795 
 4978000    23.091487 -0.017384931    71.127104    259.36597          600          600          600 -0.014651155    22731.877 7.6579289e-05    94.218591   -12.609271   0.91173095    -11.69754    34.789027            0            0            0    34.789027            0            0    39.453653            0    94.218591 
 4979000    22.341031 0.0052893096    86.310742    314.73332          600          600          600 -0.025054338    22471.974 7.6579289e-05    108.65177   -12.491558    0.7427579   -11.748801    34.089832            0            0            0    34.089832            0            0    125.31383            0    108.65177 
 4980000    18.372887 -0.00031439205    88.431479    322.46662          600          600          600 0.0092810553    22759.383 7.6579289e-05    106.80437   -7.2617228   0.61416989   -6.6475529     25.02044            0            0            0     25.02044            0            0    105.81399            0    106.80437 
 4981000    25.814173 -0.012025943    83.653999    305.04547          600          600          600 -0.025823358    23627.219 7.6579289e-05    109.46817   -7.2482832   0.50910453   -6.7391787    32.553352            0            0            0    32.553352            0            0    71.584788            0    109.46817 
 4982000    20.662417  0.005061091    87.051173    317.43331          600          600          600 0.0078250718    24626.889 7.6579289e-05    107.71359   -6.0230007   0.45742441   -5.5655763    26.227993            0            0            0    26.227993            0            0    123.65673            0    107.71359 
 4983000    16.536558 0.0091935066    74.831508    272.87413          600          600          600 0.0054648614    24374.152 7.6579289e-05    91.368065   -6.9386496   0.47644563   -6.4622039    22.998762            0            0            0    22.998762            0            0    120.32888            0    91.368065 
 4984000    20.523255  0.022911771    83.422177    304.20013          600          600          600  0.034058922    26715.142 7.6579289e-05    103.94543   -6.0388605   0.22681359   -5.8120469    26.335302            0            0            0    26.335302            0            0    176.12068            0    103.94543 
 4985000    18.339479 0.0091531723    81.357355    296.67072          600          600          600 -0.0060095917     26994.89 7.6579289e-05    99.696834   -9.1578832   0.70624676   -8.4516364    26.791115            0            0            0    26.791115            0            0    128.53059            0    99.696834 
 4986000    21.663482 -0.013533695    82.146823    299.54953          600          600          600 -0.010345434    26740.179 7.6579289e-05    103.81031   -7.2239835    0.9863629   -6.2376206    27.901103            0            0            0    27.901103            0            0    61.177292            0    103.81031 
 4987000    15.727538 3.5310103e-05    81.870152    298.54064          600          600          600 0.0049345007    26857.125 7.6579289e-05    97.597689   -9.5834199   0.55413087   -9.0292891    24.756827            0            0            0    24.756827            0            0    97.708921            0    97.597689 
 4988000    26.306431 -0.0045725817    75.365312    274.82066          600          600          600 -0.00088121019    27283.575 7.6579289e-05    101.67174   -6.0195142   0.81741128   -5.2021029    31.508534            0            0            0    31.508534            0            0    87.267478            0    101.67174 
 4989000    24.564429  0.025825626    91.613122    334.06852          600          600          600  0.058980903    25896.041 7.6579289e-05    116.17755   -2.3454532    0.5531912   -1.7922621    26.356691            0            0            0    26.356691            0            0    197.53185            0    116.17755 
 4990000    21.353879 -0.0093811399    79.554375    290.09613          600          600          600 -0.017687008    25059.621 7.6579289e-05    100.90825   -7.8842894   0.86589248   -7.0183969    28.372276            0            0            0    28.372276            0            0    71.356365            0    100.90825 
 4991000    28.115388 -0.0085931821    88.344044    322.14778          600          600          600  0.014561558    23860.013 7.6579289e-05    116.45943   -6.4732295   0.81592517   -5.6573043    33.772692            0            0            0    33.772692            0            0    89.389719            0    116.45943 
 4992000    20.298744 -0.0016224844    94.489139    344.55596          600          600          600 -0.002480642     24506.74 7.6579289e-05    114.78788   -8.5844714   0.76509763   -7.8193738    28.118118            0            0            0    28.118118            0            0    109.67683            0    114.78788 
 4993000    22.226009   -0.0023934    69.758483    254.37527          600          600          600 -0.011711092     24461.29 7.6579289e-05    91.984492   -9.1417609   0.45298894    -8.688772    30.914781            0            0            0    30.914781            0            0     84.44495            0    91.984492 
 4994000    24.122524 -0.0010924855    75.839661    276.55038          600          600          600 -0.00087093425    24195.581 7.6579289e-05    99.962185   -6.8360893    0.4758631   -6.3602262    30.482751            0            0            0    30.482751            0            0    96.520705            0    99.962185 
 4995000    22.244919 0.0050960846    68.545087    249.95061          600          600          600 -0.009584775    23990.482 7.6579289e-05    90.790006   -10.787496   0.93067704   -9.8568185    32.101737            0            0            0    32.101737            0            0    106.84338            0    90.790006 
 4996000    13.442759 -0.0028239171    81.699607    297.91875          600          600          600 -0.0072486184    25745.984 7.6579289e-05    95.142366   -10.061434   0.64995792   -9.4114761    22.854236            0            0            0    22.854236            0            0    86.246637            0    95.142366 
 4997000    17.201198  0.012711583    87.371968    318.60309          600          600          600  0.022161791        25758 7.6579289e-05    104.57317   -11.068424   0.62548689   -10.442937    27.644135            0            0            0    27.644135            0            0    144.61641            0    104.57317 
 4998000    11.984036  0.015861381    74.778728    272.68167          600          600          600  0.030819717    25342.155 7.6579289e-05    86.762763   -6.5441704   0.57980508   -5.9643653    17.948401            0            0            0    17.948401            0            0    136.72831            0    86.762763 
 4999000    25.058685 -0.038414253    85.329741    311.15609          600          600          600 -0.030098414    26374.128 7.6579289e-05    110.38843   -7.4333177   0.94700699   -6.4863107    31.544996            0            0            0    31.544996            0            0   -10.621789            0    110.38843 
 5000000    22.129495 -0.0019355307    82.760048    301.78566          600          600          600  0.013521727    24310.719 7.6579289e-05    104.88954   -8.3449546   0.49496074   -7.8499939    29.979488            0            0            0    29.979488            0            0    98.792353            0    104.88954 
Loop time of 212.412 on 1 procs for 5000000 steps with 93 atoms

Performance: 20337.827 ns/day, 0.001 hours/ns, 23539.152 timesteps/s
99.6% CPU use with 1 MPI tasks x no OpenMP threads

MPI task timing breakdown:
Section |  min time  |  avg time  |  max time  |%varavg| %total
---------------------------------------------------------------
Pair    | 120.59     | 120.59     | 120.59     |   0.0 | 56.77
Bond    | 4.9071     | 4.9071     | 4.9071     |   0.0 |  2.31
Neigh   | 46.921     | 46.921     | 46.921     |   0.0 | 22.09
Comm    | 2.811      | 2.811      | 2.811      |   0.0 |  1.32
Output  | 0.6196     | 0.6196     | 0.6196     |   0.0 |  0.29
Modify  | 22.512     | 22.512     | 22.512     |   0.0 | 10.60
Other   |            | 14.05      |            |       |  6.61

Nlocal:        93.0000 ave          93 max          93 min
Histogram: 1 0 0 0 0 0 0 0 0 0
Nghost:        40.0000 ave          40 max          40 min
Histogram: 1 0 0 0 0 0 0 0 0 0
Neighs:        1082.00 ave        1082 max        1082 min
Histogram: 1 0 0 0 0 0 0 0 0 0

Total # of neighbors = 1082
Ave neighs/atom = 11.634409
Ave special neighs/atom = 1.9784946
Neighbor list builds = 123269
Dangerous builds = 47
Total wall time: 0:03:32
