LAMMPS (10 Mar 2021)
Reading data file ...
  orthogonal box = (-300.00000 -300.00000 -300.00000) to (300.00000 300.00000 300.00000)
  1 by 1 by 1 MPI processor grid
  reading atoms ...
  185 atoms
  scanning bonds ...
  1 = max bonds/atom
  reading bonds ...
  184 bonds
Finding 1-2 1-3 1-4 neighbors ...
  special bond factors lj:    0        0        0       
  special bond factors coul:  0        0        0       
     2 = max # of 1-2 neighbors
     2 = max # of 1-3 neighbors
     4 = max # of 1-4 neighbors
     6 = max # of special neighbors
  special bonds CPU = 0.000 seconds
  read_data CPU = 0.003 seconds
Setting atom values ...
  17 settings made for charge
Setting atom values ...
  0 settings made for charge
Setting atom values ...
  11 settings made for charge
Setting atom values ...
  0 settings made for charge
Setting atom values ...
  3 settings made for charge
Setting atom values ...
  0 settings made for charge
Setting atom values ...
  13 settings made for charge
Setting atom values ...
  0 settings made for charge
Setting atom values ...
  11 settings made for charge
Setting atom values ...
  0 settings made for charge
Finding 1-2 1-3 1-4 neighbors ...
  special bond factors lj:    0        1        1       
  special bond factors coul:  0        1        1       
     2 = max # of 1-2 neighbors
     6 = max # of special neighbors
  special bonds CPU = 0.000 seconds
New timer settings: style=normal  mode=nosync  timeout=11:50:00

CITE-CITE-CITE-CITE-CITE-CITE-CITE-CITE-CITE-CITE-CITE-CITE-CITE

Your simulation uses code contributions which should be cited:

- neighbor multi command:

@Article{Intveld08,
 author =  {P.{\,}J.~in{\,}'t~Veld and S.{\,}J.~Plimpton and G.{\,}S.~Grest},
 title =   {Accurate and Efficient Methods for Modeling Colloidal
            Mixtures in an Explicit Solvent using Molecular Dynamics},
 journal = {Comp.~Phys.~Comm.},
 year =    2008,
 volume =  179,
 pages =   {320--329}
}

CITE-CITE-CITE-CITE-CITE-CITE-CITE-CITE-CITE-CITE-CITE-CITE-CITE

Neighbor list info ...
  update every 10 steps, delay 0 steps, check yes
  max neighbors/atom: 2000, page size: 100000
  master list distance cutoff = 38.5
  ghost atom cutoff = 38.5
  binsize = 8.7926654, bins = 69 69 69
  2 neighbor lists, perpetual/occasional/extra = 2 0 0
  (1) pair wf/cut, perpetual
      attributes: half, newton on
      pair build: half/multi/newton
      stencil: half/multi/3d/newton
      bin: standard
  (2) pair coul/debye, perpetual, skip from (1)
      attributes: half, newton on
      pair build: skip
      stencil: none
      bin: none
Per MPI rank memory allocation (min/avg/max) = 10.87 | 10.87 | 10.87 Mbytes
Step PotEng Press KinEng Temp Lx Ly Lz Pzz S/CPU Density TotEng E_vdwl E_coul E_pair E_bond E_angle E_dihed E_impro E_mol E_long E_tail Enthalpy Ecouple Econserve 
       0    8471.5597   -4.9123262            0            0          600          600          600   -6.8077985            0 0.00014665257    8471.5597  -0.26627794 -0.0050750598    -0.271353     8471.831            0            0            0     8471.831            0            0   -7002.9479            0    8471.5597 
    1000    121.04426 -0.076045142     796.1562    1451.5973          600          600          600  -0.13208915    14313.321 0.00014665257    917.20046    -7.853317   0.04178098   -7.8115361     128.8558            0            0            0     128.8558            0            0    677.64773            0    917.20046 
    2000    40.302511 -0.00021655418    179.34558    326.99307          600          600          600 -0.016099945    19818.013 0.00014665257    219.64809   -9.0839624   0.23908787   -8.8448745    49.147385            0            0            0    49.147385            0            0    218.96591            0    219.64809 
    3000    49.173388 -0.025408927    173.39236    316.13881          600          600          600 -0.077496989    20535.148 0.00014665257    222.56574   -9.0605526   0.30192918   -8.7586234    57.932012            0            0            0    57.932012            0            0    142.52411            0    222.56574 
    4000    55.176167 -0.012850347    177.71915    324.02768          600          600          600 -0.066645536    20489.304 0.00014665257    232.89532   -9.3435666   0.23136565   -9.1122009    64.288368            0            0            0    64.288368            0            0    192.41495            0    232.89532 
    5000    50.522855 -0.033559195    177.68725     323.9695          600          600          600 -0.050492386    19796.499 0.00014665257     228.2101   -12.404571  0.027432737   -12.377138    62.899993            0            0            0    62.899993            0            0    122.49399            0     228.2101 
    6000    50.834011 -0.054094188    153.79265    280.40352          600          600          600 -0.081518875    20308.744 0.00014665257    204.62666   -9.2342163 -0.077090936   -9.3113072    60.145318            0            0            0    60.145318            0            0    34.222478            0    204.62666 
    7000    39.430996 -0.0030038249      179.524    327.31837          600          600          600 -0.014908433    20505.632 0.00014665257    218.95499   -10.792974 -0.049319002   -10.842293    50.273289            0            0            0    50.273289            0            0    209.49253            0    218.95499 
    8000    36.420762 -0.0074225548    161.16051    293.83703          600          600          600 -0.029741097    18553.531 0.00014665257    197.58128   -12.452951  -0.43058016   -12.883531    49.304293            0            0            0    49.304293            0            0     174.1992            0    197.58128 
    9000    42.976862 -0.023635412    153.32742    279.55528          600          600          600 -0.041632403    19695.544 0.00014665257    196.30428    -6.608928  -0.34768729   -6.9566153    49.933478            0            0            0    49.933478            0            0    121.84946            0    196.30428 
   10000    42.450758  0.003167282    165.16718    301.14221          600          600          600  0.047883396    20416.895 0.00014665257    207.61794   -7.3394222   0.15828827   -7.1811339    49.631892            0            0            0    49.631892            0            0    217.59532            0    207.61794 
   11000    39.387544 -0.033458615    189.03861    344.66596          600          600          600 -0.035674825    19706.741 0.00014665257    228.42616   -10.874997   0.12507226   -10.749925    50.137468            0            0            0    50.137468            0            0    123.02689            0    228.42616 
   12000    46.609129 -0.032865972    164.72173    300.33003          600          600          600 -0.047398081    19720.362 0.00014665257    211.33086    -10.86519     0.124416   -10.740774    57.349903            0            0            0    57.349903            0            0    107.79849            0    211.33086 
   13000    38.589835 -0.012599924    175.78753    320.50584          600          600          600 0.0023057881    19951.405 0.00014665257    214.37737   -10.266025  0.031850459   -10.234175     48.82401            0            0            0     48.82401            0            0    174.68586            0    214.37737 
   14000    53.559775 -0.049814409    163.31802    297.77072          600          600          600  -0.10553318     19957.67 0.00014665257     216.8778   -10.427816  -0.34421319   -10.772029    64.331804            0            0            0    64.331804            0            0    59.955515            0     216.8778 
   15000    44.217116 -0.0066107645    168.87097    307.89516          600          600          600 0.0089391614    19756.216 0.00014665257    213.08808   -9.7304894  -0.15791022   -9.8883996    54.105516            0            0            0    54.105516            0            0    192.26326            0    213.08808 
   16000    38.230499  -0.04907799    177.18114    323.04673          600          600          600 -0.045346047     19848.68 0.00014665257    215.41163    -11.23955  -0.04490001    -11.28445    49.514949            0            0            0    49.514949            0            0    60.809171            0    215.41163 
   17000    37.522643  0.016666776    173.64997    316.60851          600          600          600 -0.0034874497    19826.725 0.00014665257    211.17261   -11.764506  0.043025631    -11.72148    49.244123            0            0            0    49.244123            0            0    263.67526            0    211.17261 
   18000    43.265646 0.0015217609    158.48579    288.96031          600          600          600 -0.039427203    19662.213 0.00014665257    201.75143   -10.032145   0.19734577   -9.8347995    53.100446            0            0            0    53.100446            0            0    206.54519            0    201.75143 
   19000    43.670926  0.011413939    155.23265      283.029          600          600          600 0.0094162605    20041.303 0.00014665257    198.90357     -9.85453   0.38244838   -9.4720816    53.143008            0            0            0    53.143008            0            0    234.85906            0    198.90357 
   20000    53.964223 -0.016354862    165.80863    302.31173          600          600          600 -0.035171234    19780.068 0.00014665257    219.77285   -7.3939375   0.30657368   -7.0873638    61.051587            0            0            0    61.051587            0            0    168.25277            0    219.77285 
   21000    44.633267 0.0010035621     170.1333    310.19672          600          600          600  -0.00198227    19721.474 0.00014665257    214.76657   -12.025541  0.022114844   -12.003427    56.636694            0            0            0    56.636694            0            0    217.92793            0    214.76657 
   22000    48.621752  0.026774465    154.93887    282.49337          600          600          600  0.044963568    19733.629 0.00014665257    203.56062    -9.941188  -0.15635937   -10.097547      58.7193            0            0            0      58.7193            0            0     287.9039            0    203.56062 
   23000    42.263247 -0.002397115     153.4437    279.76729          600          600          600  -0.01209141    19830.662 0.00014665257    195.70694   -9.2350844  0.036678469   -9.1984059    51.461653            0            0            0    51.461653            0            0     188.1557            0    195.70694 
   24000    53.780115 -0.024029672    171.87011    313.36337          600          600          600 -0.015525963    19834.132 0.00014665257    225.65022   -8.9250682  0.011752962   -8.9133153     62.69343            0            0            0     62.69343            0            0    149.95343            0    225.65022 
   25000    50.834112 -0.033302496    164.37998    299.70694          600          600          600 -0.049778125    19525.919 0.00014665257    215.21409   -9.5955624  0.035875493   -9.5596869    60.393799            0            0            0    60.393799            0            0    110.30662            0    215.21409 
   26000    38.963353 -0.041886908    170.36004    310.61012          600          600          600 -0.039032373    19810.618 0.00014665257    209.32339   -8.6126867    0.1980264   -8.4146603    47.378014            0            0            0    47.378014            0            0    77.373834            0    209.32339 
   27000     39.19793 -0.024441964    164.97278    300.78777          600          600          600 -0.049284823    19210.846 0.00014665257    204.17071   -11.421223 -0.026019473   -11.447243    50.645172            0            0            0    50.645172            0            0    127.17514            0    204.17071 
   28000    43.470646 -0.017186977    154.68093    282.02308          600          600          600 -0.047286427    20202.025 0.00014665257    198.15158   -10.154818  -0.20872963   -10.363548    53.834194            0            0            0    53.834194            0            0    144.01022            0    198.15158 
   29000    39.079021 -0.0063999434    152.89337    278.76389          600          600          600  0.016316892    19668.022 0.00014665257    191.97239   -13.449653  0.057987398   -13.391665    52.470686            0            0            0    52.470686            0            0    171.81168            0    191.97239 
   30000    41.803183  0.021395043    175.55846    320.08818          600          600          600  0.030333879    19937.748 0.00014665257    217.36164   -7.9758367  -0.72249019   -8.6983269     50.50151            0            0            0     50.50151            0            0    284.75899            0    217.36164 
   31000    59.070065 -0.019422163    141.74965    258.44604          600          600          600 -0.0031207736    19831.881 0.00014665257    200.81972   -7.3458681 -0.013376048   -7.3592441    66.429309            0            0            0    66.429309            0            0    139.63722            0    200.81972 
   32000    58.367347 -0.044956866    165.23796    301.27127          600          600          600 -0.090326839    19599.368 0.00014665257    223.60531   -9.5661375   0.17648691   -9.3896506    67.756998            0            0            0    67.756998            0            0     81.98496            0    223.60531 
   33000    45.539372  0.017055736    167.69801    305.75656          600          600          600  0.015208438     19564.08 0.00014665257    213.23738   -7.4051781 -0.061328802   -7.4665069    53.005879            0            0            0    53.005879            0            0    266.96531            0    213.23738 
   34000    52.465365 -0.010288908    166.20362    303.03191          600          600          600 -0.049520166    19970.499 0.00014665257    218.66899   -10.419989   0.15893453   -10.261055     62.72642            0            0            0     62.72642            0            0     186.2575            0    218.66899 
   35000    44.680198 -0.039580122    164.05984    299.12324          600          600          600  -0.06582882    20497.615 0.00014665257    208.74004   -11.914025  -0.17040693   -12.084432     56.76463            0            0            0     56.76463            0            0    84.057173            0    208.74004 
   36000    55.363318  0.018915249    166.80835    304.13449          600          600          600  0.041741811    19715.356 0.00014665257    222.17167   -10.217304  -0.47830252   -10.695607    66.058925            0            0            0    66.058925            0            0    281.75732            0    222.17167 
   37000    52.370364 0.0031723952    181.93959    331.72262          600          600          600 -0.0013279231    20031.253 0.00014665257    234.30995   -5.4453684  0.044570974   -5.4007974    57.771161            0            0            0    57.771161            0            0    244.30344            0    234.30995 
   38000    41.655533 0.0046405402    171.84501     313.3176          600          600          600  0.027613382    20210.202 0.00014665257    213.50054   -8.7710157   0.21315136   -8.5578644    50.213398            0            0            0    50.213398            0            0    228.11889            0    213.50054 
   39000    63.464479 -0.010900004    152.56067    278.15731          600          600          600 -0.043527857    20333.456 0.00014665257    216.02515   -6.1553872  -0.23482939   -6.3902166    69.854696            0            0            0    69.854696            0            0    181.68863            0    216.02515 
   40000    45.426945  0.014620281    167.58905    305.55791          600          600          600  0.020331741    20138.975 0.00014665257      213.016   -8.8982227   0.20624211   -8.6919806    54.118926            0            0            0    54.118926            0            0    259.07191            0      213.016 
   41000     40.66773  0.011569315    156.04383      284.508          600          600          600 0.0017207451     19624.77 0.00014665257    196.71156   -10.708013  -0.22635748   -10.934371      51.6021            0            0            0      51.6021            0            0     233.1565            0    196.71156 
   42000    41.610347  0.023538987    162.22331    295.77478          600          600          600  0.038795223    19793.696 0.00014665257    203.83366   -11.831537  -0.24927432   -12.080812    53.691158            0            0            0    53.691158            0            0    277.98473            0    203.83366 
   43000     44.44632  0.013945361    147.91802    269.69256          600          600          600  0.014562163    20235.943 0.00014665257    192.36434   -9.3006261  -0.13437498    -9.435001    53.881321            0            0            0    53.881321            0            0    236.29416            0    192.36434 
   44000    41.069377 0.0049464561    162.68533    296.61715          600          600          600 -0.017465006    19858.266 0.00014665257     203.7547   -12.683984  0.019339639   -12.664644    53.734021            0            0            0    53.734021            0            0    219.33672            0     203.7547 
   45000    45.230369 -0.038006107     181.5683    331.04567          600          600          600 -0.078906301    19299.063 0.00014665257    226.79867   -11.918962     0.441993   -11.476969    56.707338            0            0            0    56.707338            0            0    107.07418            0    226.79867 
   46000    47.330219 -0.030003329    164.06364    299.13017          600          600          600 -0.049556031    15469.316 0.00014665257    211.39386   -8.2921745  0.075659861   -8.2165146    55.546733            0            0            0    55.546733            0            0    116.87922            0    211.39386 
   47000    35.407127 -0.010521007    165.24578    301.28551          600          600          600 0.0026007299    16969.309 0.00014665257     200.6529   -11.989785 -0.066010071   -12.055795    47.462923            0            0            0    47.462923            0            0    167.51028            0     200.6529 
   48000    42.176263 -0.0074381428    165.84178    302.37217          600          600          600  0.019362187    19442.738 0.00014665257    208.01804   -11.236205   0.10829865   -11.127906    53.304169            0            0            0    53.304169            0            0    184.58686            0    208.01804 
   49000    54.728235 5.7542833e-05     168.3015    306.85687          600          600          600  0.019352101    19468.548 0.00014665257    223.02973   -5.6945355   -0.1204395    -5.814975     60.54321            0            0            0     60.54321            0            0      223.211            0    223.02973 
   50000    52.940123 -0.017401424    144.20259    262.91836          600          600          600 -0.047120574    19202.315 0.00014665257    197.14271   -9.0751869   0.14965394    -8.925533    61.865656            0            0            0    61.865656            0            0    142.32581            0    197.14271 
   51000    39.495838 0.0027057058    142.75631    260.28143          600          600          600 -0.011851886    18884.329 0.00014665257    182.25215   -10.769904   0.53251236   -10.237392     49.73323            0            0            0     49.73323            0            0     190.7755            0    182.25215 
   52000    45.488351 -0.0084982266    167.97122     306.2547          600          600          600 0.0054897756    19235.515 0.00014665257    213.45957   -8.1678602   0.52299242   -7.6448678    53.133219            0            0            0    53.133219            0            0    186.68898            0    213.45957 
   53000    40.492173 -0.014767445    159.49543    290.80115          600          600          600 -0.046167948     19347.67 0.00014665257     199.9876   -11.061084   0.28300418    -10.77808    51.270253            0            0            0    51.270253            0            0    153.46811            0     199.9876 
   54000    47.203943  0.020463565    158.50094    288.98794          600          600          600  0.010803162    19459.425 0.00014665257    205.70488   -11.806932   0.67157203    -11.13536    58.339303            0            0            0    58.339303            0            0    270.16794            0    205.70488 
   55000    45.569543 -0.034566595    145.58949    265.44705          600          600          600  -0.04507002    18957.992 0.00014665257    191.15903   -11.679577    0.5227438   -11.156833    56.726377            0            0            0    56.726377            0            0    82.269476            0    191.15903 
   56000    45.223785  0.028109754    157.08583    286.40783          600          600          600  0.027512394    18965.621 0.00014665257    202.30961   -4.8381477  -0.25194055   -5.0900883    50.313873            0            0            0    50.313873            0            0    290.85923            0    202.30961 
   57000    41.061897  0.033735952    167.13949    304.73823          600          600          600  0.031367393     19244.87 0.00014665257    208.20139   -8.1899373   0.41759775   -7.7723395    48.834236            0            0            0    48.834236            0            0    314.47431            0    208.20139 
   58000    59.313098 -0.044853066    151.29647    275.85233          600          600          600 -0.075885699    19300.129 0.00014665257    210.60956   -10.862451  -0.30639907   -11.168851    70.481949            0            0            0    70.481949            0            0    69.316196            0    210.60956 
   59000    52.248527 -0.0095872795    169.14226     308.3898          600          600          600 -0.039210729    18763.858 0.00014665257    221.39079   -10.068585   0.27439291    -9.794192    62.042719            0            0            0    62.042719            0            0    191.18953            0    221.39079 
   60000    44.099479 0.0088875504    180.22319    328.59318          600          600          600 0.0095913918    19337.501 0.00014665257    224.32267   -11.675039  0.089525849   -11.585513    55.684992            0            0            0    55.684992            0            0    252.31968            0    224.32267 
   61000    52.046595 -0.025546204    169.97145    309.90163          600          600          600 -0.049546534    18552.875 0.00014665257    222.01805   -9.2636586 -0.072197177   -9.3358558    61.382451            0            0            0    61.382451            0            0    141.54397            0    222.01805 
   62000    44.244506 -0.0017733926    167.95521    306.22551          600          600          600 -0.0083070469    18611.242 0.00014665257    212.19972   -8.8928673   0.36686803   -8.5259992    52.770505            0            0            0    52.770505            0            0    206.61329            0    212.19972 
   63000    56.760353 -0.00079753419     179.2666    326.84908          600          600          600 0.0076520796    17951.687 0.00014665257    236.02696   -10.161576 -0.016910332   -10.178487    66.938839            0            0            0    66.938839            0            0    233.51461            0    236.02696 
   64000    37.418081  0.033640264    166.47239    303.52195          600          600          600 0.0083253561    18458.083 0.00014665257    203.89047   -14.196869  0.070488441    -14.12638    51.544461            0            0            0    51.544461            0            0    309.86196            0    203.89047 
   65000    40.309401 -0.00036688799    174.83829    318.77513          600          600          600 -0.022123449    18259.127 0.00014665257    215.14769   -13.755753  -0.38529492   -14.141048    54.450449            0            0            0    54.450449            0            0    213.99195            0    215.14769 
   66000    48.141033 -0.018226361    152.59363     278.2174          600          600          600 -0.017487186    17952.071 0.00014665257    200.73467    -12.09057   0.16942352   -11.921146    60.062179            0            0            0    60.062179            0            0     143.3191            0    200.73467 
   67000    37.861896 -0.00010151269     164.5633    300.04118          600          600          600 -0.016394619    17725.157 0.00014665257     202.4252   -14.535418 0.0069558816   -14.528462    52.390357            0            0            0    52.390357            0            0    202.10542            0     202.4252 
   68000    40.606148 -0.019345925    158.94159    289.79135          600          600          600 -0.027476998      17612.1 0.00014665257    199.54773   -12.498197   0.59265796   -11.905539    52.511687            0            0            0    52.511687            0            0    138.60539            0    199.54773 
   69000    39.588428 -0.0017176776    157.46316     287.0958          600          600          600  0.032280868    17174.496 0.00014665257    197.05159   -12.415234  -0.24115628   -12.656391    52.244819            0            0            0    52.244819            0            0    191.64066            0    197.05159 
   70000    48.776952 -0.010196186    173.57587     316.4734          600          600          600 0.0072462236    17622.978 0.00014665257    222.35282   -12.009575  0.011660397   -11.997915    60.774867            0            0            0    60.774867            0            0    190.23342            0    222.35282 
   71000    49.836059 -0.0038162566    168.90363    307.95471          600          600          600  0.002509811    16927.328 0.00014665257    218.73969   -8.0247495   0.11723558   -7.9075139    57.743573            0            0            0    57.743573            0            0    206.71795            0    218.73969 
   72000    45.168898 -0.038676189    170.79982    311.41196          600          600          600 -0.043989088    17021.578 0.00014665257    215.96872   -13.277122   0.15397812   -13.123144    58.292042            0            0            0    58.292042            0            0     94.13337            0    215.96872 
   73000    39.231834  0.013890883    166.55451    303.67167          600          600          600  0.027187017    17559.896 0.00014665257    205.78635   -12.507845   0.21441882   -12.293426     51.52526            0            0            0     51.52526            0            0    249.54455            0    205.78635 
   74000    51.310325  0.011257397    158.47145    288.93416          600          600          600 -0.016234462    17831.333 0.00014665257    209.78177   -6.6785782   0.32979536   -6.3487828    57.659108            0            0            0    57.659108            0            0    245.24413            0    209.78177 
   75000    51.255045 -0.019158029    173.02087     315.4615          600          600          600 -0.0023621297    18026.139 0.00014665257    224.27592   -12.379089   0.25286372   -12.126225     63.38127            0            0            0     63.38127            0            0    163.92547            0    224.27592 
   76000    52.885785 -0.0080503059     158.6424    289.24586          600          600          600  0.011463766    18064.258 0.00014665257    211.52819   -9.7570016  -0.27342768   -10.030429    62.916214            0            0            0    62.916214            0            0    186.16861            0    211.52819 
   77000    48.915174 -0.019270185    183.75829    335.03857          600          600          600 -0.011936061    18034.277 0.00014665257    232.67346   -9.9730367    0.3115929   -9.6614438    58.576618            0            0            0    58.576618            0            0    171.96971            0    232.67346 
   78000    48.685828 -0.0012879781     164.0341    299.07632          600          600          600 0.0067976055    18086.069 0.00014665257    212.71993   -10.778723   0.65424673   -10.124477    58.810305            0            0            0    58.810305            0            0    208.66262            0    212.71993 
   79000     42.73143 -0.0049587046    160.44967    292.54098          600          600          600  0.026968895    18384.781 0.00014665257     203.1811   -9.6424116 -0.058435973   -9.7008475    52.432277            0            0            0    52.432277            0            0     187.5605            0     203.1811 
   80000    52.373371 -0.0015432947    158.49456     288.9763          600          600          600  -0.03263132    18306.625 0.00014665257    210.86793   -13.581973  -0.36595814   -13.947931    66.321302            0            0            0    66.321302            0            0    206.00634            0    210.86793 
   81000    44.316378 -0.0016429171    158.12554    288.30349          600          600          600 -0.018282796    18384.701 0.00014665257    202.44192   -10.280874  -0.26936058   -10.550234    54.866612            0            0            0    54.866612            0            0     197.2665            0    202.44192 
   82000    35.252579 -0.0053799789    168.98827    308.10903          600          600          600 -0.0098657203     18406.08 0.00014665257    204.24085   -11.491929  -0.13396346   -11.625892    46.878471            0            0            0    46.878471            0            0    187.29317            0    204.24085 
   83000    41.370146 0.0086881057    144.45574    263.37993          600          600          600   0.02255535    17895.163 0.00014665257    185.82588   -12.353275  0.071776458   -12.281499    53.651644            0            0            0    53.651644            0            0    213.19462            0    185.82588 
   84000    45.365626 0.0020766253    175.80475    320.53722          600          600          600  0.012251102    17884.251 0.00014665257    221.17037    -8.544999 -0.0014549667    -8.546454     53.91208            0            0            0     53.91208            0            0    227.71203            0    221.17037 
   85000    37.669782 -0.0027684174     153.6227    280.09365          600          600          600 -0.012061624    17805.974 0.00014665257    191.29248   -14.875397 -0.032742138   -14.908139    52.577921            0            0            0    52.577921            0            0    182.57158            0    191.29248 
   86000    38.265276 -0.0080530832     169.2701    308.62288          600          600          600 -0.012736261    17080.289 0.00014665257    207.53537   -12.237135   0.42904103   -11.808094    50.073369            0            0            0    50.073369            0            0    182.16705            0    207.53537 
   87000    49.826466 0.0031181603    160.59248    292.80135          600          600          600 0.0023663513    16765.547 0.00014665257    210.41894   -12.026454 -0.0073826914   -12.033837    61.860303            0            0            0    61.860303            0            0    220.24158            0    210.41894 
   88000    41.072686 -0.010264537     184.8199    336.97416          600          600          600 0.0059323564    17557.764 0.00014665257    225.89258   -12.602199   0.44514928   -12.157049    53.229736            0            0            0    53.229736            0            0    193.55787            0    225.89258 
   89000    34.607068 0.0073048323    183.05923    333.76401          600          600          600 -0.0097209309    18012.514 0.00014665257    217.66629   -11.920472  0.080872595   -11.839599    46.446667            0            0            0    46.446667            0            0    240.67753            0    217.66629 
   90000    39.343935 0.0031872036    150.05879    273.59574          600          600          600 -0.00021492231    18079.208 0.00014665257    189.40273   -7.7733175   0.22421693   -7.5491006    46.893036            0            0            0    46.893036            0            0    199.44286            0    189.40273 
   91000    54.252379 -0.019590597     162.7273    296.69367          600          600          600 -0.010975873    17963.373 0.00014665257    216.97967   -6.5914441  0.048639167   -6.5428049    60.795183            0            0            0    60.795183            0            0    155.26658            0    216.97967 
   92000    46.940542  0.026743836    157.07571    286.38938          600          600          600  0.029855124    18148.439 0.00014665257    204.01625   -8.9706669  -0.14911273   -9.1197796    56.060321            0            0            0    56.060321            0            0    288.26304            0    204.01625 
   93000    54.595335 -0.0075475398    169.79359    309.57734          600          600          600 -0.052990093    19096.354 0.00014665257    224.38892   -11.729761   0.11500778   -11.614753    66.210088            0            0            0    66.210088            0            0    200.61313            0    224.38892 
   94000    52.531891 -0.0073494162    174.58705    318.31705          600          600          600 -0.021171187    17803.102 0.00014665257    227.11894   -11.161264  0.076410211   -11.084854    63.616745            0            0            0    63.616745            0            0    203.96726            0    227.11894 
   95000    47.273949  0.016519398    166.81146    304.14015          600          600          600  0.015831702    17449.874 0.00014665257    214.08541   -7.6441811   0.62679751   -7.0173836    54.291333            0            0            0    54.291333            0            0     266.1238            0    214.08541 
   96000    48.489432  0.015398893    160.91409    293.38772          600          600          600  0.026840856    17788.228 0.00014665257    209.40352   -9.9415862   0.21769931   -9.7238869    58.213319            0            0            0    58.213319            0            0    257.91216            0    209.40352 
   97000     45.35656  0.023601326    161.14403    293.80697          600          600          600 -0.0059901401    17863.838 0.00014665257    206.50059   -11.142809  -0.12640584   -11.269215    56.625775            0            0            0    56.625775            0            0    280.84803            0    206.50059 
   98000     34.86991  0.017210964     169.6935    309.39485          600          600          600  0.022393836    17797.436 0.00014665257    204.56341   -8.7670077   0.10544047   -8.6615672    43.531477            0            0            0    43.531477            0            0    258.78033            0    204.56341 
   99000    40.978937  0.021103907    149.36519    272.33112          600          600          600   0.03902987    17854.256 0.00014665257    190.34412   -6.6195479   0.54011404   -6.0794338    47.058371            0            0            0    47.058371            0            0    256.82435            0    190.34412 
  100000    36.277384  0.020733394    161.48449    294.42772          600          600          600  0.011900743    17297.169 0.00014665257    197.76188   -10.153893   0.31509082   -9.8388018    46.116186            0            0            0    46.116186            0            0    263.07494            0    197.76188 
  101000    50.973092 -0.037510748    146.54538    267.18988          600          600          600 -0.058870093    17954.223 0.00014665257    197.51847   -12.290547 -0.0036856708   -12.294233    63.267325            0            0            0    63.267325            0            0     79.35442            0    197.51847 
  102000    47.574078 -0.018202524    167.77775    305.90194          600          600          600 0.0023409891    17493.833 0.00014665257    215.35182   -6.8974003  -0.32833121   -7.2257315    54.799809            0            0            0    54.799809            0            0    158.01135            0    215.35182 
  103000    39.197219  0.036291604    165.08188    300.98668          600          600          600  0.044672113    17455.393 0.00014665257     204.2791   -12.139099  0.043101975   -12.095997    51.293216            0            0            0    51.293216            0            0    318.60268            0     204.2791 
  104000    49.424197 -0.038135515    159.07144    290.02812          600          600          600 -0.059640095    16915.313 0.00014665257    208.49564   -11.955359  -0.17849872   -12.133858    61.558055            0            0            0    61.558055            0            0    88.363491            0    208.49564 
  105000    39.837913 -0.010924427    175.53319    320.04211          600          600          600 -0.023695564    16259.135 0.00014665257    215.37111   -11.709679   0.10063543   -11.609043    51.446956            0            0            0    51.446956            0            0    180.95765            0    215.37111 
  106000    47.899529  0.021295833    160.73862    293.06781          600          600          600 0.0016139894    16658.871 0.00014665257    208.63815   -13.796011   0.35199566   -13.444016    61.343544            0            0            0    61.343544            0            0    275.72297            0    208.63815 
  107000    39.295103  0.034575272    162.44543    296.17976          600          600          600  0.065465543     17125.34 0.00014665257    201.74053    -4.632048    0.1816576   -4.4503904    43.745494            0            0            0    43.745494            0            0    310.65742            0    201.74053 
  108000    50.549066 -0.031898386    188.33629    343.38544          600          600          600 -0.078196063    16804.709 0.00014665257    238.88535   -11.415297   0.64177989   -10.773518    61.322584            0            0            0    61.322584            0            0    138.40102            0    238.88535 
  109000    49.960373  0.012018178    161.53867     294.5265          600          600          600 -0.0027154454    15903.841 0.00014665257    211.49904   -15.522635   0.59756136   -14.925073    64.885447            0            0            0    64.885447            0            0    249.35797            0    211.49904 
  110000    38.627281   0.02085197    145.37257    265.05154          600          600          600  0.026464241    15969.358 0.00014665257    183.99985   -15.861242   0.44376645   -15.417475    54.044757            0            0            0    54.044757            0            0    249.68644            0    183.99985 
  111000    28.653743  0.030216847     171.1084    311.97458          600          600          600  0.035528857    15996.156 0.00014665257    199.76214   -16.637386   0.40748003   -16.229906    44.883648            0            0            0    44.883648            0            0     294.9494            0    199.76214 
  112000    46.522478 0.0011501356    153.09395    279.12961          600          600          600 -0.0014648434    16109.014 0.00014665257    199.61643   -11.201459   0.56496073   -10.636498    57.158975            0            0            0    57.158975            0            0    203.23952            0    199.61643 
  113000    34.121183    0.0199612       155.29    283.13357          600          600          600  0.039407526    16144.916 0.00014665257    189.41118    -9.832444  -0.31547655   -10.147921    44.269104            0            0            0    44.269104            0            0    252.29172            0    189.41118 
  114000    45.826467  0.028704194    165.73818    302.18329          600          600          600 -0.046338365    16285.081 0.00014665257    211.56465   -8.6331732   0.57434187   -8.0588313    53.885298            0            0            0    53.885298            0            0    301.98684            0    211.56465 
  115000    58.781179  0.026634324    170.18707    310.29477          600          600          600  0.036514854    15486.566 0.00014665257    228.96825   -9.3277965   0.63462896   -8.6931675    67.474347            0            0            0    67.474347            0            0    312.87006            0    228.96825 
  116000    47.545498 -0.023512672    163.05296    297.28744          600          600          600 -0.020575843    16137.897 0.00014665257    210.59846   -12.520275   0.46573298   -12.054542    59.600041            0            0            0    59.600041            0            0    136.53028            0    210.59846 
  117000    39.356492 -0.017470782    165.75468    302.21337          600          600          600 -0.037353866    16019.188 0.00014665257    205.11117   -13.420098 -0.046185305   -13.466284    52.822776            0            0            0    52.822776            0            0    150.07579            0    205.11117 
  118000    44.231221 -0.023900724    167.72098    305.79843          600          600          600 -0.037084406    16172.058 0.00014665257     211.9522   -13.662124   0.32409471   -13.338029    57.569251            0            0            0    57.569251            0            0    136.66161            0     211.9522 
  119000    46.251578  0.020376452    159.99584    291.71353          600          600          600  0.043589051    15910.899 0.00014665257    206.24742   -10.475896  -0.14444055   -10.620336    56.871914            0            0            0    56.871914            0            0    270.43606            0    206.24742 
  120000    50.157389 -0.0049501345    172.42371    314.37272          600          600          600 0.0093021072    16225.359 0.00014665257     222.5811   -11.597326   0.27118888   -11.326137    61.483526            0            0            0    61.483526            0            0    206.98749            0     222.5811 
  121000    37.273837  0.018693999    152.89418    278.76537          600          600          600 0.0075858325    17066.597 0.00014665257    190.16801   -12.846309 -0.072334675   -12.918644    50.192481            0            0            0    50.192481            0            0     249.0567            0    190.16801 
  122000    45.851363 -0.044826473    171.51993     312.7249          600          600          600 -0.052007419    16704.518 0.00014665257    217.37129   -14.876758 -0.083282252   -14.960041    60.811403            0            0            0    60.811403            0            0    76.161697            0    217.37129 
  123000    35.879636 -0.0065236832     169.1295    308.36654          600          600          600 -0.012685448    16280.024 0.00014665257    205.00914   -14.149946   0.18138554    -13.96856    49.848196            0            0            0    49.848196            0            0    184.45863            0    205.00914 
  124000    36.371899 -0.029583432    156.21826    284.82603          600          600          600 -0.054105386     15680.11 0.00014665257    192.59016   -13.919668  -0.11435577   -14.034024    50.405923            0            0            0    50.405923            0            0    99.398254            0    192.59016 
  125000    40.628704 -0.0081162281    155.90259    284.25048          600          600          600   0.02004586    15481.078 0.00014665257    196.53129   -14.327445   0.19933401   -14.128111    54.756814            0            0            0    54.756814            0            0    170.96405            0    196.53129 
  126000    34.123696  0.017751281    171.51016     312.7071          600          600          600 -0.0012347572     15867.02 0.00014665257    205.63386   -15.850489   0.15163433   -15.698854     49.82255            0            0            0     49.82255            0            0    261.55285            0    205.63386 
  127000    39.757699 0.0093348343    145.39531    265.09301          600          600          600  0.014836513    15818.489 0.00014665257    185.15301   -15.583184 -0.0063693557   -15.589553    55.347252            0            0            0    55.347252            0            0    214.55903            0    185.15301 
  128000    42.218944 -0.010870333    157.00593    286.26215          600          600          600 -0.025263825    15675.481 0.00014665257    199.22487   -12.208907   0.40830925   -11.800598    54.019541            0            0            0    54.019541            0            0    164.98182            0    199.22487 
  129000     44.76702  0.007246178    152.42727    277.91408          600          600          600 -0.0010686061    15473.368 0.00014665257    197.19429   -11.466892   0.17604789   -11.290845    56.057865            0            0            0    56.057865            0            0    220.02076            0    197.19429 
  130000    43.300977 -0.010176544    170.33428    310.56317          600          600          600 -0.024394011    15346.156 0.00014665257    213.63526   -13.394086  0.018204884   -13.375882    56.676858            0            0            0    56.676858            0            0    181.57774            0    213.63526 
  131000    49.521317  0.010898858    162.99036     297.1733          600          600          600 0.0026916088    15070.023 0.00014665257    212.51167   -14.226691   0.69804357   -13.528648    63.049964            0            0            0    63.049964            0            0    246.84458            0    212.51167 
  132000    42.714406 -0.015973848    174.00695    317.25938          600          600          600  0.016899662    15364.032 0.00014665257    216.72136   -14.759248   0.67895166   -14.080296    56.794702            0            0            0    56.794702            0            0    166.40153            0    216.72136 
  133000    39.991779  0.017436529    156.90302    286.07452          600          600          600 -0.022218451    15560.105 0.00014665257     196.8948   -14.582237   0.42734806   -14.154889    54.146667            0            0            0    54.146667            0            0    251.82228            0     196.8948 
  134000    44.193648 0.0040774053     152.1654    277.43662          600          600          600   0.01959229    15392.902 0.00014665257    196.35905    -14.78094    0.1489358   -14.632004    58.825652            0            0            0    58.825652            0            0    209.20344            0    196.35905 
  135000    43.211244 -0.0092259973    165.10407    301.02714          600          600          600  0.014484671    16008.183 0.00014665257    208.31531   -11.746213  -0.21019521   -11.956408    55.167652            0            0            0    55.167652            0            0    179.25214            0    208.31531 
  136000    41.842406 -0.016264553    168.93375    308.00962          600          600          600  -0.01106132    15903.298 0.00014665257    210.77615   -14.284643   0.15967811   -14.124965    55.967371            0            0            0    55.967371            0            0    159.54056            0    210.77615 
  137000      39.7034 -0.026121657    171.08344    311.92907          600          600          600 -0.025097718    15765.689 0.00014665257    210.78684   -11.214738  -0.36178726   -11.576525    51.279925            0            0            0    51.279925            0            0    128.50001            0    210.78684 
  138000    51.336201 0.0036706964    168.11478    306.51644          600          600          600 -0.0096440742    15644.259 0.00014665257    219.45098   -13.622136  -0.11659801   -13.738734    65.074934            0            0            0    65.074934            0            0    231.01418            0    219.45098 
  139000    32.342595 -0.012046358    172.18677    313.94073          600          600          600 -0.022825071     14922.95 0.00014665257    204.52937   -19.338936   0.15924255   -19.179694    51.522288            0            0            0    51.522288            0            0    166.58167            0    204.52937 
  140000    39.453371 -0.023226194    162.87508    296.96312          600          600          600 -0.050430263    14520.096 0.00014665257    202.32845   -15.409021    0.3181768   -15.090844    54.544215            0            0            0    54.544215            0            0    129.16273            0    202.32845 
  141000     50.43726  0.020962959     174.9448    318.96931          600          600          600  0.028843804    14647.525 0.00014665257    225.38206   -9.2033207   0.32790602   -8.8754147    59.312675            0            0            0    59.312675            0            0    291.41828            0    225.38206 
  142000    40.117596 -0.022363892    170.51516    310.89295          600          600          600 -0.037313047    14680.593 0.00014665257    210.63276   -13.310573   0.41945843   -12.891115    53.008711            0            0            0    53.008711            0            0     140.1834            0    210.63276 
  143000    43.791486 -0.010085698     160.8303    293.23495          600          600          600 -0.026251008    14484.194 0.00014665257    204.62178   -14.714872    0.8935869   -13.821285     57.61277            0            0            0     57.61277            0            0    172.85044            0    204.62178 
  144000    49.990799  0.015460803    177.27308    323.21437          600          600          600   0.02627415      14472.4 0.00014665257    227.26388    -9.538069   0.42192243   -9.1161466    59.106945            0            0            0    59.106945            0            0    275.96755            0    227.26388 
  145000    40.654557 -0.0029113691    170.35422    310.59951          600          600          600 -0.0054312904    14940.279 0.00014665257    211.00877   -14.600536   0.22654175   -14.373995    55.028552            0            0            0    55.028552            0            0    201.83756            0    211.00877 
  146000    45.084362 -0.022124213    165.62128    301.97014          600          600          600 -0.024264465    14859.981 0.00014665257    210.70564   -12.534933   0.34609705   -12.188835    57.273198            0            0            0    57.273198            0            0     141.0113            0    210.70564 
  147000    40.873176  0.012285308    173.29374    315.95901          600          600          600 -0.0020390888    15133.587 0.00014665257    214.16691   -11.968482  -0.34136129   -12.309843    53.183019            0            0            0    53.183019            0            0    252.86734            0    214.16691 
  148000    45.116208 -0.013655025      161.811    295.02302          600          600          600 -0.040229531    14424.023 0.00014665257    206.92721   -13.109837   0.50330106   -12.606536    57.722744            0            0            0    57.722744            0            0    163.91198            0    206.92721 
  149000     39.66774 -0.0086713313    170.81803    311.44517          600          600          600 -0.00085254969    15061.581 0.00014665257    210.48577    -11.85866   0.81927627   -11.039384    50.707124            0            0            0    50.707124            0            0    183.16988            0    210.48577 
  150000    38.416469 0.0070441664    157.85041    287.80185          600          600          600 0.0020380375    16018.454 0.00014665257    196.26688   -12.626311   0.59446304   -12.031848    50.448317            0            0            0    50.448317            0            0    218.45698            0    196.26688 
  151000    43.352716 -0.013424742    169.60873    309.24029          600          600          600 -0.032497654    16234.528 0.00014665257    212.96145   -13.624232   0.96255947   -12.661673    56.014388            0            0            0    56.014388            0            0    170.67165            0    212.96145 
  152000     37.83912  0.022846987    158.60826     289.1836          600          600          600   0.03427847    15887.936 0.00014665257    196.44738    -13.57073   0.32015766   -13.250573    51.089693            0            0            0    51.089693            0            0    268.41855            0    196.44738 
  153000    45.094922 0.00049064699    165.22324    301.24442          600          600          600   0.02799995    15316.008 0.00014665257    210.31816   -9.9042264   0.61037313   -9.2938533    54.388775            0            0            0    54.388775            0            0    211.86377            0    210.31816 
  154000    48.467386  -0.02508932    155.76776    284.00464          600          600          600  -0.01324515    15380.878 0.00014665257    204.23514   -8.7710897   0.21164581   -8.5594439     57.02683            0            0            0     57.02683            0            0    125.20031            0    204.23514 
  155000    43.017269 0.0092922567    164.73376    300.35197          600          600          600  0.021233948    16307.875 0.00014665257    207.75103   -9.6415449   0.29820146   -9.3433434    52.360613            0            0            0    52.360613            0            0    237.02292            0    207.75103 
  156000    47.476515 -0.018125373    167.23009    304.90341          600          600          600 -0.0020900298    16088.006 0.00014665257     214.7066   -11.086658   0.97340982   -10.113248    57.589763            0            0            0    57.589763            0            0    157.60917            0     214.7066 
  157000    36.424754   0.01930905    151.36848    275.98363          600          600          600  0.017203418    15676.945 0.00014665257    187.79323    -12.82544   0.44817623   -12.377264    48.802019            0            0            0    48.802019            0            0    248.61941            0    187.79323 
  158000     50.81002 -0.026579847    149.70483    272.95037          600          600          600  -0.02275484    15192.955 0.00014665257    200.51485   -12.358136    0.6333409   -11.724795    62.534815            0            0            0    62.534815            0            0    116.78465            0    200.51485 
  159000    38.303351 -0.0072411723    150.26473    273.97121          600          600          600 -0.026782094    15050.502 0.00014665257    188.56808   -13.256634   0.17052033   -13.086113    51.389464            0            0            0    51.389464            0            0    165.75738            0    188.56808 
  160000    44.569044  0.010641183    140.31988     255.8392          600          600          600 -0.0036382894    15005.756 0.00014665257    184.88893   -15.125798   0.21178584   -14.914012    59.483056            0            0            0    59.483056            0            0    218.41013            0    184.88893 
  161000    46.084237 -0.028496048    170.10609     310.1471          600          600          600 -0.026164373    10949.299 0.00014665257    216.19032   -10.292899   0.61908601   -9.6738134    55.758051            0            0            0    55.758051            0            0    126.42383            0    216.19032 
  162000    36.946754 0.0086001788    158.13974    288.32938          600          600          600  0.018016776    12779.058 0.00014665257     195.0865   -16.091494    -0.607299   -16.698793    53.645547            0            0            0    53.645547            0            0    222.17825            0     195.0865 
  163000    44.081612 0.0088179341    160.51906    292.66749          600          600          600 -0.014920149    13845.832 0.00014665257    204.60067    -14.48903    0.1276264   -14.361403    58.443016            0            0            0    58.443016            0            0    232.37839            0    204.60067 
  164000    53.622683 -0.022128234    156.04214    284.50492          600          600          600 -0.0025964092    11659.103 0.00014665257    209.66483   -10.722192  -0.19000403   -10.912196    64.534879            0            0            0    64.534879            0            0    139.95783            0    209.66483 
  165000    45.944688 -0.040821974    158.06749    288.19766          600          600          600 -0.047798489    14924.915 0.00014665257    204.01218   -13.883358   0.28446403   -13.598894    59.543582            0            0            0    59.543582            0            0    75.417311            0    204.01218 
  166000    46.479253  0.024603583    166.53937    303.64406          600          600          600  0.023986316    15299.192 0.00014665257    213.01862   -10.086673   0.30511293   -9.7815598    56.260813            0            0            0    56.260813            0            0    290.52331            0    213.01862 
  167000    44.523402 0.0062623431     181.0935    330.17998          600          600          600 -0.0084738298    14657.352 0.00014665257     225.6169   -11.781297   0.30768048   -11.473617    55.997019            0            0            0    55.997019            0            0    245.34415            0     225.6169 
  168000    42.919205 -0.016255857    164.92225    300.69565          600          600          600  0.013373094    14492.352 0.00014665257    207.84146   -11.701589   0.80741318   -10.894176    53.813381            0            0            0    53.813381            0            0    156.63326            0    207.84146 
  169000    35.490806 0.0082719996    176.42934    321.67603          600          600          600 -0.0029771784    15447.837 0.00014665257    211.92015    -15.75804   0.45817953    -15.29986    50.790666            0            0            0    50.790666            0            0    237.97809            0    211.92015 
  170000     38.65832  0.015028738    173.15612     315.7081          600          600          600  0.032160586    16088.006 0.00014665257    211.81444    -11.84641   0.18761745   -11.658793    50.317113            0            0            0    50.317113            0            0    259.15705            0    211.81444 
  171000    52.327514 -0.017343719    161.47902    294.41774          600          600          600 -0.015827645    15966.805 0.00014665257    213.80653    -13.41063   0.77318459   -12.637445    64.964959            0            0            0    64.964959            0            0    159.17142            0    213.80653 
  172000    45.650773  0.025690736    176.70682    322.18193          600          600          600  0.025766863    15881.079 0.00014665257    222.35759   -7.9203764   0.10924629   -7.8111301    53.461903            0            0            0    53.461903            0            0    303.28697            0    222.35759 
  173000     54.52697 0.0045995371    186.50497    340.04647          600          600          600  0.027913711    15496.693 0.00014665257    241.03194   -10.098262   0.75575856   -9.3425039    63.869474            0            0            0    63.869474            0            0    255.52111            0    241.03194 
  174000    34.992053  0.019441229    161.81547    295.03118          600          600          600  0.030220132    14786.743 0.00014665257    196.80752   -13.894986      0.29921   -13.595776    48.587828            0            0            0    48.587828            0            0    258.05008            0    196.80752 
  175000    39.392993 -0.008933271    162.47332     296.2306          600          600          600 -0.036172582    14677.202 0.00014665257    201.86631   -13.981505   0.14666239   -13.834842    53.227835            0            0            0    53.227835            0            0    173.72527            0    201.86631 
  176000    35.393644   0.01130317    171.65673    312.97433          600          600          600  0.035698826    15009.354 0.00014665257    207.05038   -13.775752   0.30548349   -13.470268    48.863912            0            0            0    48.863912            0            0    242.65693            0    207.05038 
  177000    40.466835  0.011633568    177.81345    324.19961          600          600          600  0.012996068    15274.899 0.00014665257    218.28029    -12.70657   0.18418271   -12.522387    52.989221            0            0            0    52.989221            0            0    254.92763            0    218.28029 
  178000    44.089397  0.027949857    166.43354    303.45111          600          600          600  0.033093003    15011.181 0.00014665257    210.52294   -14.739968   0.34254396   -14.397424     58.48682            0            0            0     58.48682            0            0    298.56885            0    210.52294 
  179000    36.049998  0.010547459    181.64563    331.18666          600          600          600  0.033175453    15105.246 0.00014665257    217.69563   -14.673922  0.068824876   -14.605097    50.655095            0            0            0    50.655095            0            0    250.92159            0    217.69563 
  180000    38.562606 -0.0038621985     170.6649    311.16596          600          600          600 -0.0017380284    14967.416 0.00014665257    209.22751   -12.762224   0.72747825   -12.034746    50.597352            0            0            0    50.597352            0            0    197.06105            0    209.22751 
  181000    30.474919 0.0059139641    159.49859    290.80692          600          600          600 -0.0075603933    13574.414 0.00014665257    189.97351   -16.021644    0.2213374   -15.800306    46.275225            0            0            0    46.275225            0            0    208.60332            0    189.97351 
  182000    41.039737  0.015423784    167.98976     306.2885          600          600          600  0.025766146    13752.673 0.00014665257     209.0295   -11.980779  -0.29715502   -12.277934    53.317671            0            0            0    53.317671            0            0    257.61656            0     209.0295 
  183000    43.387748 0.0053827898    167.07956    304.62896          600          600          600  0.013553069    14221.933 0.00014665257    210.46731   -12.515109  -0.29687172   -12.811981    56.199729            0            0            0    56.199729            0            0    227.42384            0    210.46731 
  184000    53.523197 -0.015373296    175.03383    319.13164          600          600          600 -0.00071583335    14960.636 0.00014665257    228.55702   -10.520523   0.42381153   -10.096712    63.619909            0            0            0    63.619909            0            0    180.12901            0    228.55702 
  185000    39.956351 -0.014902536    154.45768    281.61605          600          600          600 -0.00024054524    13671.847 0.00014665257    194.41404   -15.846533   0.24059581   -15.605938    55.562289            0            0            0    55.562289            0            0    147.46899            0    194.41404 
  186000    45.831495 -0.035442619    155.43263    283.39363          600          600          600 -0.075532082    11335.681 0.00014665257    201.26413   -13.283793 -0.0045782671   -13.288371    59.119866            0            0            0    59.119866            0            0     89.61497            0    201.26413 
  187000    51.470226  0.027682993    180.48594    329.07225          600          600          600  0.007136521    13516.976 0.00014665257    231.95617   -11.355562    0.4146263   -10.940936    62.411162            0            0            0    62.411162            0            0    319.16143            0    231.95617 
  188000     53.07807 -0.0084782703    185.31817    337.88265          600          600          600 -0.043612376      13640.9 0.00014665257    238.39624   -15.485495   0.25236616   -15.233129    68.311199            0            0            0    68.311199            0            0    211.68852            0    238.39624 
  189000    49.723754 0.0065196084    176.92872    322.58651          600          600          600 0.0015155572    14382.279 0.00014665257    226.65247   -7.1606555   0.38474808   -6.7759074    56.499661            0            0            0    56.499661            0            0    247.19014            0    226.65247 
  190000     45.83737 -0.038463757      173.189    315.76804          600          600          600 -0.047586091    14387.064 0.00014665257    219.02637   -11.399287  -0.11937953   -11.518666    57.356036            0            0            0    57.356036            0            0    97.860207            0    219.02637 
  191000    47.501982  0.033631412    195.86358    357.10963          600          600          600 -0.0079968853    13929.104 0.00014665257    243.36556    -17.00939   0.47680374   -16.532587    64.034569            0            0            0    64.034569            0            0    349.30917            0    243.36556 
  192000     34.79019 -0.0013065912    152.90327    278.78195          600          600          600 -0.00014687999    14059.748 0.00014665257    187.69346   -11.807446   0.54556523   -11.261881    46.052071            0            0            0    46.052071            0            0    183.57752            0    187.69346 
  193000    35.775408 -0.0026118442    139.57673    254.48424          600          600          600 0.0016923693    14268.621 0.00014665257    175.35214   -11.740025   0.27844504    -11.46158    47.236989            0            0            0    47.236989            0            0    167.12447            0    175.35214 
  194000    46.937983 0.0089607039    158.86957    289.66004          600          600          600  0.020988714    13897.167 0.00014665257    205.80755   -12.872395   0.91802276   -11.954372    58.892355            0            0            0    58.892355            0            0    234.03501            0    205.80755 
  195000    41.098012 -0.016240389    168.57135    307.34889          600          600          600 -0.023402858     14034.72 0.00014665257    209.66936   -13.219814   0.44671588   -12.773098    53.871111            0            0            0    53.871111            0            0    158.50989            0    209.66936 
  196000    40.925523 0.0099518365    188.23408     343.1991          600          600          600  0.014289981    13759.305 0.00014665257     229.1596   -11.054344 -0.036086511    -11.09043    52.015953            0            0            0    52.015953            0            0    260.50927            0     229.1596 
  197000    45.088299  0.012013452    174.07245     317.3788          600          600          600  0.023012983    11515.031 0.00014665257    219.16075    -9.946219   0.34358647   -9.6026326    54.690932            0            0            0    54.690932            0            0    257.00478            0    219.16075 
  198000    32.166816 -0.014180727    165.28992      301.366          600          600          600 0.00039260233    12977.747 0.00014665257    197.45674   -17.829395   0.11886319   -17.710532    49.877348            0            0            0    49.877348            0            0    152.78548            0    197.45674 
  199000    47.258845  0.013155085     174.6926     318.5095          600          600          600 0.0041639657    14327.255 0.00014665257    221.95145   -10.145625    1.6064499   -8.5391755     55.79802            0            0            0     55.79802            0            0    263.39179            0    221.95145 
  200000    48.444987  0.013491022    163.32468    297.78285          600          600          600 -0.0060164846     13980.92 0.00014665257    211.76966   -11.352084  -0.41985837   -11.771942     60.21693            0            0            0     60.21693            0            0    254.26825            0    211.76966 
  201000    35.403666 -0.015337381    151.31444     275.8851          600          600          600 0.0034787573    12669.967 0.00014665257     186.7181   -18.339043   0.39888186   -17.940162    53.343827            0            0            0    53.343827            0            0    138.40323            0     186.7181 
  202000    35.579088  0.023614996     183.3448    334.28467          600          600          600  0.043644829    12604.289 0.00014665257    218.92388   -16.232952   0.86413906   -15.368813      50.9479            0            0            0      50.9479            0            0    293.31439            0    218.92388 
  203000     41.22792 -0.021858884      144.484    263.43145          600          600          600 -0.0065914589    13994.215 0.00014665257    185.71192   -8.6465886   0.15912727   -8.4874614    49.715382            0            0            0    49.715382            0            0    116.85341            0    185.71192 
  204000    40.635934 -0.0029478174    160.26378    292.20204          600          600          600 -0.013056854    13265.096 0.00014665257    200.89971    -15.62981   0.87724803   -14.752562    55.388496            0            0            0    55.388496            0            0    191.61368            0    200.89971 
  205000    67.985088 -0.013431242    182.63497    332.99048          600          600          600  0.037203351    13417.565 0.00014665257    250.62006   -12.120362   0.34902281   -11.771339    79.756427            0            0            0    79.756427            0            0    208.30979            0    250.62006 
  206000    50.194984 -0.014369894    154.14193    281.04034          600          600          600 -0.024636064    13679.517 0.00014665257    204.33691   -10.574969  0.050154443   -10.524815    60.719799            0            0            0    60.719799            0            0    159.06976            0    204.33691 
  207000    53.636592 0.0072301952    162.69421    296.63335          600          600          600  0.030386108    13874.274 0.00014665257     216.3308   -11.078238   0.17253757     -10.9057    64.542292            0            0            0    64.542292            0            0    239.10692            0     216.3308 
  208000    49.369444 -0.019936653    157.87424    287.84531          600          600          600 0.0080343892    13803.182 0.00014665257    207.24369   -11.827552  -0.14983958   -11.977391    61.346835            0            0            0    61.346835            0            0    144.44047            0    207.24369 
  209000    38.168011  -0.03657443    174.48077    318.12328          600          600          600 -0.017002831    14169.898 0.00014665257    212.64879   -16.963326    0.2022536   -16.761072    54.929083            0            0            0    54.929083            0            0    97.434266            0    212.64879 
  210000    41.541248  0.019420632    181.58601    331.07794          600          600          600  0.024772437    13872.163 0.00014665257    223.12725   -16.767446   0.44502011   -16.322426    57.863674            0            0            0    57.863674            0            0    284.30493            0    223.12725 
  211000    31.681518  0.013722201    158.39181    288.78897          600          600          600  0.013759915    13968.814 0.00014665257    190.07333   -13.765961 -0.069461672   -13.835423    45.516941            0            0            0    45.516941            0            0    233.30016            0    190.07333 
  212000    31.069663 -0.0033766567    161.19116    293.89291          600          600          600 -0.010027476    14588.934 0.00014665257    192.26083   -15.028633   0.78017638   -14.248457     45.31812            0            0            0     45.31812            0            0    181.62389            0    192.26083 
  213000    41.418883  0.014512695    180.34441     328.8142          600          600          600  0.030344641    14946.828 0.00014665257     221.7633   -13.656956   0.13814652    -13.51881    54.937692            0            0            0    54.937692            0            0    267.48029            0     221.7633 
  214000    46.871559 -0.019539502    149.66852    272.88416          600          600          600 -0.015925805    15643.792 0.00014665257    196.54008   -13.478442   0.27565941   -13.202783    60.074342            0            0            0    60.074342            0            0    134.98794            0    196.54008 
  215000    42.893099  -0.02445847    156.14222    284.68739          600          600          600 -0.038953787    16606.304 0.00014665257    199.03532     -13.5643 -0.016466119   -13.580766    56.473865            0            0            0    56.473865            0            0    121.98775            0    199.03532 
  216000    50.199049  0.010947015     156.7791    285.84857          600          600          600 -0.0046144651    16066.868 0.00014665257    206.97814    -7.274985   0.58793601    -6.687049    56.886098            0            0            0    56.886098            0            0    241.46276            0    206.97814 
  217000    44.908381 -0.018920062    161.27159    294.03954          600          600          600 -0.011240466    15778.322 0.00014665257    206.17997   -10.703713   0.51709169   -10.186621    55.095002            0            0            0    55.095002            0            0    146.57915            0    206.17997 
  218000    48.586139  -0.02075579    169.08584    308.28693          600          600          600 0.0081392568    11575.827 0.00014665257    217.67198   -12.564693   0.33939873   -12.225295    60.811434            0            0            0    60.811434            0            0    152.28836            0    217.67198 
  219000    36.341959  0.021069748    160.14273    291.98134          600          600          600  0.038363097    13356.508 0.00014665257    196.48469   -12.002958     1.401771   -10.601187    46.943146            0            0            0    46.943146            0            0    262.85731            0    196.48469 
  220000    42.606964 -9.756802e-07    162.50992    296.29734          600          600          600  0.016373081    14438.522 0.00014665257    205.11689   -14.221824   0.12652593   -14.095298    56.702262            0            0            0    56.702262            0            0    205.11381            0    205.11689 
  221000     53.45227  0.049962909    157.59718    287.34016          600          600          600  0.097616054     15367.86 0.00014665257    211.04945   -1.9617223  -0.08585349   -2.0475758    55.499846            0            0            0    55.499846            0            0    368.43953            0    211.04945 
  222000    50.392111 -0.019027368    158.39563    288.79593          600          600          600 -0.029982995    15343.742 0.00014665257    208.78774     -10.9166      0.24085    -10.67575    61.067862            0            0            0    61.067862            0            0     148.8489            0    208.78774 
  223000    38.432596 -0.016035117    163.03131    297.24797          600          600          600 -0.018375956    14893.382 0.00014665257    201.46391    -13.27047   -0.2754041   -13.545874     51.97847            0            0            0     51.97847            0            0    150.95107            0    201.46391 
  224000    53.548548 0.00077860982    150.05295    273.58507          600          600          600 -0.014210292    14743.394 0.00014665257    203.60149   -13.600135  0.099192818   -13.500942     67.04949            0            0            0     67.04949            0            0    206.05422            0    203.60149 
  225000    39.609466  0.013480991    185.98951    339.10666          600          600          600 0.0099540026    14554.964 0.00014665257    225.59897   -10.175969   0.40073344   -9.7752359    49.384702            0            0            0    49.384702            0            0    268.06596            0    225.59897 
  226000    46.169511 -0.0036144073    167.96973    306.25197          600          600          600 -0.040507077    14112.352 0.00014665257    214.13924   -9.9962105  -0.25445837   -10.250669     56.42018            0            0            0     56.42018            0            0    202.75336            0    214.13924 
  227000     47.59479 -0.017887803     156.3552    285.07571          600          600          600 -0.041056837    14404.456 0.00014665257    203.94999   -9.9153288   0.20341432   -9.7119145    57.306704            0            0            0    57.306704            0            0    147.60094            0    203.94999 
  228000    45.314357 -0.0085916023    152.36358    277.79796          600          600          600  0.011550667    14143.236 0.00014665257    197.67794   -11.150131   0.65935282   -10.490778    55.805136            0            0            0    55.805136            0            0     170.6132            0    197.67794 
  229000    39.336218  0.006646101    163.52781    298.15321          600          600          600 -0.0031948137    14744.275 0.00014665257    202.86403   -17.684821   0.20649941   -17.478322    56.814539            0            0            0    56.814539            0            0    223.80016            0    202.86403 
  230000     47.27758 -0.0050007544    163.49939     298.1014          600          600          600 0.0019344306    14050.093 0.00014665257    210.77697   -10.634406   0.07668764   -10.557719    57.835299            0            0            0    57.835299            0            0     195.0239            0    210.77697 
  231000    40.679752 -0.010823842    159.62686    291.04077          600          600          600 0.0036677475    13553.053 0.00014665257    200.30661   -15.283078   0.16571883    -15.11736    55.797112            0            0            0    55.797112            0            0    166.21001            0    200.30661 
  232000    47.194133   0.03453982    190.85316    347.97435          600          600          600  0.025139503    13498.922 0.00014665257     238.0473   -12.009113   0.61026524   -11.398848    58.592981            0            0            0    58.592981            0            0    346.85251            0     238.0473 
  233000    48.524218 -0.0080194977      187.577    342.00106          600          600          600  0.011746087    12407.275 0.00014665257    236.10122   -7.9341539  -0.23321243   -8.1673664    56.691585            0            0            0    56.691585            0            0    210.83869            0    236.10122 
  234000    41.187789  0.034059716     167.5363    305.46172          600          600          600  0.031059723     13468.19 0.00014665257    208.72409   -11.932886   0.36628007   -11.566606    52.754395            0            0            0    52.754395            0            0     316.0169            0    208.72409 
  235000    44.851938 -0.040055192    160.48644    292.60801          600          600          600 -0.046682655     13258.89 0.00014665257    205.33838    -14.32923    1.0540066   -13.275223    58.127161            0            0            0    58.127161            0            0    79.158977            0    205.33838 
  236000    43.158337 0.0044721541    179.04346    326.44222          600          600          600  0.022331475    13088.998 0.00014665257    222.20179    -14.85986   0.93551217   -13.924348    57.082685            0            0            0    57.082685            0            0     236.2897            0    222.20179 
  237000    46.524174 -0.019332287    172.93667    315.30799          600          600          600 -0.013993559    13066.083 0.00014665257    219.46085   -19.505232   0.57740591   -18.927826       65.452            0            0            0       65.452            0            0    158.56147            0    219.46085 
[...]
 4943000    47.346775  0.027689526    151.05314    275.40868          600          600          600  0.030996856    13961.793 0.00014665257    198.39991   -8.4124193  -0.25348635   -8.6659056    56.012681            0            0            0    56.012681            0            0    285.62575            0    198.39991 
 4944000    36.985643 -0.0068106678    166.58188    303.72156          600          600          600 -0.0073742924    14091.065 0.00014665257    203.56752   -12.075797  -0.37578239   -12.451579    49.437222            0            0            0    49.437222            0            0    182.11297            0    203.56752 
 4945000    37.482818 -0.018942497    157.10504    286.44285          600          600          600  0.043900613    13603.383 0.00014665257    194.58786   -16.288885  -0.57441096   -16.863296    54.346114            0            0            0    54.346114            0            0    134.91637            0    194.58786 
 4946000    30.656791  0.017217326    155.07472    282.74106          600          600          600 -0.0042643899    13252.773 0.00014665257    185.73151   -15.494054  -0.45848648   -15.952541    46.609331            0            0            0    46.609331            0            0    239.96847            0    185.73151 
 4947000     32.71275 -0.025133304    154.59137    281.85979          600          600          600 -0.0047711203    12777.734 0.00014665257    187.30412    -19.13033  -0.11835678   -19.248687    51.961438            0            0            0    51.961438            0            0    108.13073            0    187.30412 
 4948000    45.342253 0.0064123488    191.01423    348.26803          600          600          600 -0.011489053    12696.162 0.00014665257    236.35649   -15.955524   0.36838187   -15.587143    60.929396            0            0            0    60.929396            0            0    256.55627            0    236.35649 
 4949000    52.687569 -0.0014640554    167.50851    305.41106          600          600          600 -0.010685309    12519.264 0.00014665257    220.19608   -14.358203   0.65345274    -13.70475    66.392319            0            0            0    66.392319            0            0    215.58411            0    220.19608 
 4950000    48.282126 -0.0018660602     164.6846    300.26234          600          600          600 -0.018708491    12432.688 0.00014665257    212.96672   -13.558958   0.21736379   -13.341594     61.62372            0            0            0     61.62372            0            0    207.08838            0    212.96672 
 4951000    42.418049 -0.015686652    169.66509    309.34304          600          600          600 -0.016517518    12129.452 0.00014665257    212.08313   -14.358555  -0.22714271   -14.585697    57.003746            0            0            0    57.003746            0            0    162.66801            0    212.08313 
 4952000    43.032842  0.016616438    161.05193    293.63904          600          600          600  0.030367304    12507.206 0.00014665257    204.08477   -13.244404  -0.06686324   -13.311267    56.344109            0            0            0    56.344109            0            0    256.42885            0    204.08477 
 4953000    44.103156 -0.013902797    163.63869    298.35539          600          600          600 -0.033164822    12406.798 0.00014665257    207.74185   -13.165452  -0.33060773    -13.49606    57.599216            0            0            0    57.599216            0            0    163.94612            0    207.74185 
 4954000    52.353211  0.047555398     148.6951    271.10938          600          600          600  0.029958579    12199.589 0.00014665257    201.04831   -10.238709 -0.049331288    -10.28804    62.641251            0            0            0    62.641251            0            0     350.8544            0    201.04831 
 4955000    37.074961 -0.0021116109    160.71965    293.03322          600          600          600  0.042478388    12240.925 0.00014665257    197.79461     -16.4039   0.40445793   -15.999442    53.074403            0            0            0    53.074403            0            0    191.14274            0    197.79461 
 4956000    45.242836 -0.042421349    182.28183    332.34662          600          600          600 -0.043565376    11686.228 0.00014665257    227.52467   -17.430924   0.01664471    -17.41428    62.657116            0            0            0    62.657116            0            0    93.891548            0    227.52467 
 4957000    45.492263 -0.0067874383    153.68846    280.21354          600          600          600  -0.02392538    11902.044 0.00014665257    199.18072   -14.916296   0.50626684   -14.410029    59.902292            0            0            0    59.902292            0            0    177.79935            0    199.18072 
 4958000    39.470381 -0.00091985669    157.02737    286.30123          600          600          600  0.020425821    12029.231 0.00014665257    196.49775   -10.110698   0.88532526   -9.2253729    48.695754            0            0            0    48.695754            0            0    193.60007            0    196.49775 
 4959000    38.726487 -0.013407903     163.2712    297.68534          600          600          600 -0.018411051    12287.256 0.00014665257    201.99768   -12.561039   0.72521516   -11.835823     50.56231            0            0            0     50.56231            0            0    159.76093            0    201.99768 
 4960000      31.0892  0.020866155    177.55394    323.72645          600          600          600 -0.0002466414    12612.096 0.00014665257    208.64314   -10.526956  -0.44498745   -10.971944    42.061144            0            0            0    42.061144            0            0    274.37442            0    208.64314 
 4961000    48.446405 0.0042492258    179.57812    327.41705          600          600          600 0.0049905179    12235.247 0.00014665257    228.02452   -15.286058  -0.60584734   -15.891905     64.33831            0            0            0     64.33831            0            0    241.41017            0    228.02452 
 4962000    38.776868  0.017513518    166.07524    302.79783          600          600          600    0.0234329    11563.795 0.00014665257    204.85211   -17.411327    -0.480316   -17.891643    56.668512            0            0            0    56.668512            0            0    260.02211            0    204.85211 
 4963000    38.666373  0.024946719    166.10023    302.84341          600          600          600  0.024917809    11528.292 0.00014665257    204.76661   -16.306955   0.31430737   -15.992647     54.65902            0            0            0     54.65902            0            0    283.35222            0    204.76661 
 4964000    35.390628  0.011672254     170.7044    311.23798          600          600          600  0.029364827     12208.36 0.00014665257    206.09503   -12.600283 -0.076729701   -12.677012    48.067641            0            0            0    48.067641            0            0    242.86425            0    206.09503 
 4965000    48.039031 0.0032158872    139.37238    254.11166          600          600          600  -0.01660279    12217.784 0.00014665257    187.41141   -15.249114  0.048974964   -15.200139     63.23917            0            0            0     63.23917            0            0     197.5419            0    187.41141 
 4966000    41.473556    0.0280292    171.14038    312.03288          600          600          600  0.016258993    12289.092 0.00014665257    212.61393   -14.606303   0.18625119   -14.420052    55.893608            0            0            0    55.893608            0            0    300.90979            0    212.61393 
 4967000    39.571258 -0.019407174    160.86931    293.30609          600          600          600 -0.030195622    12211.345 0.00014665257    200.44057    -14.43704   0.56730348   -13.869737    53.440994            0            0            0    53.440994            0            0    139.30529            0    200.44057 
 4968000    56.831136 -0.0086839471     181.3414    330.63197          600          600          600 -0.0024755807    12105.682 0.00014665257    238.17254   -13.968691   0.56739093     -13.4013    70.232436            0            0            0    70.232436            0            0     210.8169            0    238.17254 
 4969000    41.780297 -0.030303592    156.06822    284.55247          600          600          600 -0.041196167     12168.09 0.00014665257    197.84852   -18.355848   0.42933771    -17.92651    59.706807            0            0            0    59.706807            0            0    102.38801            0    197.84852 
 4970000    34.467639 -0.0044691811     172.7842    315.02999          600          600          600  0.013383015    12281.392 0.00014665257    207.25184   -20.199501   0.14365105    -20.05585    54.523489            0            0            0    54.523489            0            0     193.1733            0    207.25184 
 4971000    38.443159  0.011987356    146.16952    266.50459          600          600          600   0.01108548    12432.577 0.00014665257    184.61268   -15.173443   0.47769554   -14.695748    53.138907            0            0            0    53.138907            0            0    222.37451            0    184.61268 
 4972000    41.184973  0.028530494    156.24625    284.87706          600          600          600  0.026771331    12811.808 0.00014665257    197.43122   -13.575883   0.12867858   -13.447205    54.632177            0            0            0    54.632177            0            0    287.30623            0    197.43122 
 4973000    33.614294 0.0044741137    163.13827    297.44299          600          600          600  0.017023101    12960.744 0.00014665257    196.75257   -19.426853 -0.045557458    -19.47241    53.086704            0            0            0    53.086704            0            0    210.84664            0    196.75257 
 4974000    43.928385  -0.05969555    143.39305    261.44237          600          600          600 -0.052366367    13021.826 0.00014665257    187.32143   -17.517742  -0.16711919   -17.684861    61.613246            0            0            0    61.613246            0            0  -0.72781226            0    187.32143 
 4975000    38.233409 -0.0014718822    154.35219     281.4237          600          600          600 0.00066982009    13551.258 0.00014665257     192.5856   -12.176519    0.1845188      -11.992    50.225409            0            0            0    50.225409            0            0    187.94897            0     192.5856 
 4976000    46.981149 -0.028572869    148.96758    271.60617          600          600          600 -0.016141804    14115.534 0.00014665257    195.94873   -11.862103  -0.27996059   -12.142064    59.123212            0            0            0    59.123212            0            0    105.94024            0    195.94873 
 4977000    48.677203  0.014287759    182.01357    331.85751          600          600          600  0.044093595    14501.571 0.00014665257    230.69077   -12.519674 -0.031108632   -12.550783    61.227985            0            0            0    61.227985            0            0    275.69919            0    230.69077 
 4978000    48.915808 -0.0077673029    167.43385    305.27493          600          600          600 -0.024651563    14418.172 0.00014665257    216.34966   -13.171458  0.095846032   -13.075612     61.99142            0            0            0     61.99142            0            0    191.88158            0    216.34966 
 4979000    54.966519 0.0079275915    167.28196      304.998          600          600          600 -0.0087506735     14735.78 0.00014665257    222.24848    -7.405054  0.064773282   -7.3402807      62.3068            0            0            0      62.3068            0            0    247.22149            0    222.24848 
 4980000    46.289269  0.056358975    161.07971     293.6897          600          600          600  0.060567403    14116.722 0.00014665257    207.36898   -12.537865 -0.029126933   -12.566992    58.856261            0            0            0    58.856261            0            0    384.90755            0    207.36898 
 4981000    53.212726  0.016358441    159.95678    291.64231          600          600          600 0.0016248095    14675.661 0.00014665257    213.16951   -11.805073   -0.2352106   -12.040283     65.25301            0            0            0     65.25301            0            0    264.70086            0    213.16951 
 4982000    40.474633 -0.0084565255    154.59875    281.87325          600          600          600 -0.002634277    14936.076 0.00014665257    195.07339   -15.166645 -0.047560269   -15.214205    55.688839            0            0            0    55.688839            0            0    168.43416            0    195.07339 
 4983000    42.395175  0.024518019    167.15038    304.75809          600          600          600  0.019698536    14420.849 0.00014665257    209.54555   -11.588946   0.29367404   -11.295272    53.690448            0            0            0    53.690448            0            0    286.78071            0    209.54555 
 4984000    53.962566 -0.0019607742     158.5919    289.15377          600          600          600 -0.026248901    14906.244 0.00014665257    212.55446   -9.8031409   0.23396616   -9.5691748    63.531741            0            0            0    63.531741            0            0    206.37775            0    212.55446 
 4985000    40.245204 0.0091998024     176.8107    322.37134          600          600          600 -0.020055107    14507.039 0.00014665257     217.0559    -8.062561  -0.77422951   -8.8367905    49.081994            0            0            0    49.081994            0            0    246.03656            0     217.0559 
 4986000    48.179502 -0.002765485    179.80486    327.83047          600          600          600  0.027189212    14513.364 0.00014665257    227.98437   -13.157429   0.36234895    -12.79508    60.974582            0            0            0    60.974582            0            0    219.27271            0    227.98437 
 4987000    33.757482  0.020590134    147.86535    269.59652          600          600          600   0.01500326      13841.4 0.00014665257    181.62283   -11.089127 -0.002579529   -11.091706    44.849189            0            0            0    44.849189            0            0     246.4846            0    181.62283 
 4988000    47.767475  0.021446933    167.76943    305.88677          600          600          600  0.022905714    13364.721 0.00014665257     215.5369   -10.940985   0.24200867   -10.698976    58.466451            0            0            0    58.466451            0            0    283.09771            0     215.5369 
 4989000     42.63298 -0.013864318    161.42835    294.32536          600          600          600 -0.035758315    12851.968 0.00014665257    204.06133   -13.820874    1.2476652   -12.573209    55.206189            0            0            0    55.206189            0            0    160.38681            0    204.06133 
 4990000      44.6225  0.035046083    164.60787    300.12244          600          600          600  0.025218691    12182.793 0.00014665257    209.23037   -13.449074   0.62939878   -12.819675    57.442175            0            0            0    57.442175            0            0    319.63038            0    209.23037 
 4991000    37.801411 -0.014573016    163.29337    297.72577          600          600          600 0.0012940076     12052.39 0.00014665257    201.09478   -21.690583    0.8964009   -20.794182    58.595593            0            0            0    58.595593            0            0    155.18777            0    201.09478 
 4992000    35.536255   0.03008111    170.66331    311.16306          600          600          600  0.024608286    11940.467 0.00014665257    206.19956   -16.088498   0.73937018   -15.349128    50.885383            0            0            0    50.885383            0            0    300.95922            0    206.19956 
 4993000    46.611372 -0.010758118    155.10476    282.79583          600          600          600 -0.027172612    11623.561 0.00014665257    201.71613   -16.947059  0.064400105   -16.882658     63.49403            0            0            0     63.49403            0            0    167.82657            0    201.71613 
 4994000    40.261324  0.022436671    185.29408    337.83871          600          600          600  0.011018878    11993.869 0.00014665257     225.5554   -11.037406    0.1326919   -10.904714    51.166039            0            0            0    51.166039            0            0    296.23402            0     225.5554 
 4995000    40.014309 -0.00071904079    177.15776    323.00412          600          600          600 3.1941379e-05    12378.676 0.00014665257    217.17207   -14.244772  0.085692992   -14.159079    54.173388            0            0            0    54.173388            0            0    214.90699            0    217.17207 
 4996000    42.178998 -0.003117189    184.60552    336.58329          600          600          600 -0.011175934    11958.442 0.00014665257    226.78451    -15.75148   0.14798969    -15.60349    57.782488            0            0            0    57.782488            0            0    216.96494            0    226.78451 
 4997000    41.062347 -0.011500952    162.18866     295.7116          600          600          600 -0.00065117995    12175.083 0.00014665257    203.25101   -16.731636  -0.76665143   -17.498287    58.560635            0            0            0    58.560635            0            0    167.02142            0    203.25101 
 4998000    42.891024 -0.022680579    160.12341    291.94612          600          600          600 -0.020742907    12077.586 0.00014665257    203.01443   -14.372107  -0.27412738   -14.646235    57.537259            0            0            0    57.537259            0            0    131.56747            0    203.01443 
 4999000    43.081881  0.008473862    155.86427    284.18061          600          600          600 -0.0032705948     12309.65 0.00014665257    198.94615   -12.852022  -0.18757665   -13.039598    56.121479            0            0            0    56.121479            0            0    225.63999            0    198.94615 
 5000000    41.285674  0.008863445    163.78958    298.63048          600          600          600 -0.0055394147    11920.953 0.00014665257    205.07525   -13.718999  -0.31150522   -14.030504    55.316178            0            0            0    55.316178            0            0    232.99633            0    205.07525 
Loop time of 379.603 on 1 procs for 5000000 steps with 185 atoms

Performance: 11380.301 ns/day, 0.002 hours/ns, 13171.644 timesteps/s
99.8% CPU use with 1 MPI tasks x no OpenMP threads

MPI task timing breakdown:
Section |  min time  |  avg time  |  max time  |%varavg| %total
---------------------------------------------------------------
Pair    | 241.62     | 241.62     | 241.62     |   0.0 | 63.65
Bond    | 9.1032     | 9.1032     | 9.1032     |   0.0 |  2.40
Neigh   | 65.021     | 65.021     | 65.021     |   0.0 | 17.13
Comm    | 4.5884     | 4.5884     | 4.5884     |   0.0 |  1.21
Output  | 0.62298    | 0.62298    | 0.62298    |   0.0 |  0.16
Modify  | 42.844     | 42.844     | 42.844     |   0.0 | 11.29
Other   |            | 15.8       |            |       |  4.16

Nlocal:        185.000 ave         185 max         185 min
Histogram: 1 0 0 0 0 0 0 0 0 0
Nghost:        143.000 ave         143 max         143 min
Histogram: 1 0 0 0 0 0 0 0 0 0
Neighs:        2969.00 ave        2969 max        2969 min
Histogram: 1 0 0 0 0 0 0 0 0 0

Total # of neighbors = 2969
Ave neighs/atom = 16.048649
Ave special neighs/atom = 1.9891892
Neighbor list builds = 138812
Dangerous builds = 49
Total wall time: 0:06:19
