ITEM: TIMESTEP
0
ITEM: NUMBER OF ATOMS
185
ITEM: BOX BOUNDS pp pp pp
-3.0000000000000000e+02 3.0000000000000000e+02
-3.0000000000000000e+02 3.0000000000000000e+02
-3.0000000000000000e+02 3.0000000000000000e+02
ITEM: ATOMS id mol type q xu yu zu
1 1 1 0                    6                    0                    0
2 1 6 0                   12                    0                    0
3 1 8 -0.75                   18                    0                    0
4 1 18 0                   24                    0                    0
5 1 5 0.75                   30                    0                    0
6 1 12 0                   36                    0                    0
7 1 8 -0.75                   42                    0                    0
8 1 14 0                   48                    0                    0
9 1 8 -0.75                   54                    0                    0
10 1 10 0                   60                    0                    0
11 1 1 0                   66                    0                    0
12 1 8 -0.75                   72                    0                    0
13 1 7 -0.75                   78                    0                    0
14 1 16 0.375                   84                    0                    0
15 1 6 0                   90                    0                    0
16 1 2 0                   96                    0                    0
17 1 4 0                  102                    0                    0
18 1 9 0                  108                    0                    0
19 1 2 0                  114                    0                    0
20 1 11 0                  120                    0                    0
21 1 2 0                  126                    0                    0
22 1 7 -0.75                  132                    0                    0
23 1 5 0.75                  138                    0                    0
24 1 3 0.75                  144                    0                    0
25 1 7 -0.75                  150                    0                    0
26 1 12 0                  156                    0                    0
27 1 2 0                  162                    0                    0
28 1 2 0                  168                    0                    0
29 1 9 0                  174                    0                    0
30 1 4 0                  180                    0                    0
31 1 1 0                  186                    0                    0
32 1 16 0.375                  192                    0                    0
33 1 12 0                  198                    0                    0
34 1 7 -0.75                  204                    0                    0
35 1 12 0                  210                    0                    0
36 1 8 -0.75                  216                    0                    0
37 1 2 0                  222                    0                    0
38 1 7 -0.75                  228                    0                    0
39 1 4 0                  234                    0                    0
40 1 7 -0.75                  240                    0                    0
41 1 6 0                  246                    0                    0
42 1 2 0                  252                    0                    0
43 1 11 0                  258                    0                    0
44 1 3 0.75                  264                    0                    0
45 1 6 0                  270                    0                    0
46 1 8 -0.75                  276                    0                    0
47 1 8 -0.75                  282                    0                    0
48 1 6 0                  288                    0                    0
49 1 2 0                  294                    0                    0
50 1 20 0                  300                    0                    0
51 1 2 0                  300                    6                    0
52 1 7 -0.75                  300                   12                    0
53 1 4 0                  300                   18                    0
54 1 18 0                  300                   24                    0
55 1 15 0                  300                   30                    0
56 1 11 0                  300                   36                    0
57 1 8 -0.75                  300                   42                    0
58 1 7 -0.75                  300                   48                    0
59 1 8 -0.75                  300                   54                    0
60 1 6 0                  300                   60                    0
61 1 6 0                  300                   66                    0
62 1 2 0                  300                   72                    0
63 1 16 0.375                  300                   78                    0
64 1 10 0                  300                   84                    0
65 1 4 0                  300                   90                    0
66 1 12 0                  300                   96                    0
67 1 6 0                  300                  102                    0
68 1 5 0.75                  300                  108                    0
69 1 1 0                  300                  114                    0
70 1 10 0                  300                  120                    0
71 1 15 0                  300                  126                    0
72 1 3 0.75                  300                  132                    0
73 1 15 0                  300                  138                    0
74 1 3 0.75                  300                  144                    0
75 1 7 -0.75                  300                  150                    0
76 1 2 0                  300                  156                    0
77 1 4 0                  300                  162                    0
78 1 2 0                  300                  168                    0
79 1 15 0                  300                  174                    0
80 1 7 -0.75                  300                  180                    0
81 1 7 -0.75                  300                  186                    0
82 1 3 0.75                  300                  192                    0
83 1 3 0.75                  300                  198                    0
84 1 6 0                  300                  204                    0
85 1 3 0.75                  300                  210                    0
86 1 2 0                  300                  216                    0
87 1 6 0                  300                  222                    0
88 1 7 -0.75                  300                  228                    0
89 1 2 0                  300                  234                    0
90 1 3 0.75                  300                  240                    0
91 1 4 0                  300                  246                    0
92 1 3 0.75                  300                  252                    0
93 1 20 0                  300                  258                    0
94 1 6 0                  300                  264                    0
95 1 4 0                  300                  270                    0
96 1 18 0                  300                  276                    0
97 1 5 0.75                  300                  282                    0
98 1 2 0                  300                  288                    0
99 1 6 0                  300                  294                    0
100 1 6 0                  300                  300                    0
101 1 18 0                  300                  300                    6
102 1 18 0                  300                  300                   12
103 1 2 0                  300                  300                   18
104 1 12 0                  300                  300                   24
105 1 3 0.75                  300                  300                   30
106 1 2 0                  300                  300                   36
107 1 12 0                  300                  300                   42
108 1 6 0                  300                  300                   48
109 1 17 0                  300                  300                   54
110 1 6 0                  300                  300                   60
111 1 4 0                  300                  300                   66
112 1 5 0.75                  300                  300                   72
113 1 20 0                  300                  300                   78
114 1 18 0                  300                  300                   84
115 1 6 0                  300                  300                   90
116 1 3 0.75                  300                  300                   96
117 1 4 0                  300                  300                  102
118 1 18 0                  300                  300                  108
119 1 18 0                  300                  300                  114
120 1 6 0                  300                  300                  120
121 1 18 0                  300                  300                  126
122 1 3 0.75                  300                  300                  132
123 1 4 0                  300                  300                  138
124 1 18 0                  300                  300                  144
125 1 18 0                  300                  300                  150
126 1 15 0                  300                  300                  156
127 1 15 0                  300                  300                  162
128 1 2 0                  300                  300                  168
129 1 8 -0.75                  300                  300                  174
130 1 18 0                  300                  300                  180
131 1 18 0                  300                  300                  186
132 1 3 0.75                  300                  300                  192
133 1 15 0                  300                  300                  198
134 1 2 0                  300                  300                  204
135 1 7 -0.75                  300                  300                  210
136 1 5 0.75                  300                  300                  216
137 1 15 0                  300                  300                  222
138 1 2 0                  300                  300                  228
139 1 9 0                  300                  300                  234
140 1 15 0                  300                  300                  240
141 1 15 0                  300                  300                  246
142 1 18 0                  300                  300                  252
143 1 2 0                  300                  300                  258
144 1 15 0                  300                  300                  264
145 1 18 0                  300                  300                  270
146 1 2 0                  300                  300                  276
147 1 4 0                  300                  300                  282
148 1 18 0                  300                  300                  288
149 1 2 0                  300                  300                  294
150 1 15 0                  300                  300                  300
151 1 5 0.75                  300                  300                  306
152 1 15 0                  300                  300                  312
153 1 5 0.75                  300                  300                  318
154 1 4 0                  300                  300                  324
155 1 18 0                  300                  300                  330
156 1 15 0                  300                  300                  336
157 1 11 0                  300                  300                  342
158 1 18 0                  300                  300                  348
159 1 4 0                  300                  300                  354
160 1 18 0                  300                  300                  360
161 1 18 0                  300                  300                  366
162 1 4 0                  300                  300                  372
163 1 5 0.75                  300                  300                  378
164 1 8 -0.75                  300                  300                  384
165 1 18 0                  300                  300                  390
166 1 3 0.75                  300                  300                  396
167 1 3 0.75                  300                  300                  402
168 1 10 0                  300                  300                  408
169 1 6 0                  300                  300                  414
170 1 10 0                  300                  300                  420
171 1 10 0                  300                  300                  426
172 1 5 0.75                  300                  300                  432
173 1 4 0                  300                  300                  438
174 1 18 0                  300                  300                  444
175 1 18 0                  300                  300                  450
176 1 3 0.75                  300                  300                  456
177 1 15 0                  300                  300                  462
178 1 18 0                  300                  300                  468
179 1 15 0                  300                  300                  474
180 1 15 0                  300                  300                  480
181 1 6 0                  300                  300                  486
182 1 3 0.75                  300                  300                  492
183 1 15 0                  300                  300                  498
184 1 5 0.75                  300                  300                  504
185 1 11 0                  300                  300                  510
ITEM: TIMESTEP
100000
ITEM: NUMBER OF ATOMS
185
ITEM: BOX BOUNDS pp pp pp
-3.0000000000000000e+02 3.0000000000000000e+02
-3.0000000000000000e+02 3.0000000000000000e+02
-3.0000000000000000e+02 3.0000000000000000e+02
ITEM: ATOMS id mol type q xu yu zu
1 1 1 0     240.185154379493     89.5644940111077     19.9964723704541
2 1 6 0     240.676127389093     86.1194137250496     18.5685646369148
3 1 8 -0.75      238.80464279847     85.0722083122482     15.0708901992526
4 1 18 0     238.754518539787     86.8540258968456     11.5769274488317
5 1 5 0.75     235.377595863415     88.7175871339228     12.5969646083206
6 1 12 0     231.667897299717     88.7299718417859      13.416141540009
7 1 8 -0.75     229.957508572516     86.7792425697226     10.3094239567861
8 1 14 0     226.507598730408     85.3267786043672     11.2029644989644
9 1 8 -0.75     222.802952948588     85.0747549733844     12.2865060382379
10 1 10 0      223.31075160708     86.4946070543517     15.9386392872009
11 1 1 0     224.378338965589     87.6668826890213     19.1938830853524
12 1 8 -0.75     224.000004696931     90.6475154191112     21.2712167778925
13 1 7 -0.75     223.819399028053     93.4391880019945     23.6631909364208
14 1 16 0.375     224.439366957057     91.9151647135861      27.349733452272
15 1 6 0     225.908273929245     88.2948191547194     27.5983506586753
16 1 2 0     222.820262860798     86.8761222620528     25.1091290881642
17 1 4 0     219.675791991884     85.4567731619041     26.1968571245519
18 1 9 0     218.123805324979      84.646480896997     29.6531269708646
19 1 2 0     220.918420170576      86.936989219336     31.1331000618476
20 1 11 0     222.887761412112     89.4964059981267     33.0792254299082
21 1 2 0     223.206248669859     88.4679973498401     36.5494538630008
22 1 7 -0.75     222.785575417697     88.6881501980905     40.3435427899249
23 1 5 0.75     225.182988176722     91.3246349777313     41.6402688705334
24 1 3 0.75     228.127300215183     93.8143269135294     41.2491536409067
25 1 7 -0.75     228.526085383452     97.1329869791353     43.2840970759652
26 1 12 0     231.962363453671     97.9564303370267     44.3910462373828
27 1 2 0       235.0315864309      97.774789250957     42.2058694870426
28 1 2 0     235.327523131456     98.5944116922342     38.3926202984854
29 1 9 0     236.611351068919     100.975413104863     35.5431539546539
30 1 4 0     234.635763807923     103.679551756958     34.5073309180763
31 1 1 0     233.218099854766     106.872068208925     36.5454209362386
32 1 16 0.375     235.040708666739     108.065954425857     39.9638646510918
33 1 12 0     235.318419693528     104.702543106449     42.6568979854404
34 1 7 -0.75     232.374407814569      103.93024979655     45.2063688717452
35 1 12 0     231.158601002203     106.929611454018     46.9614619628716
36 1 8 -0.75     227.943510986441     109.151591852045      46.704755889066
37 1 2 0     226.285683295613     108.158630789104     50.2932268001281
38 1 7 -0.75     226.717372211348     111.322677598066      52.604612867775
39 1 4 0     224.525487486154     114.591895582458     51.5134643316385
40 1 7 -0.75     225.902632473293     116.524882404471     54.2729970437671
41 1 6 0     228.947943156522     116.290751310335     55.6937814091644
42 1 2 0     228.582931954837     116.636482340405     59.6875096754475
43 1 11 0     226.556043771574     119.900118665799     59.7953695319512
44 1 3 0.75      226.72438967332     122.792762585563     61.8096334256271
45 1 6 0     225.814989668453     125.145550609121     64.5006888860283
46 1 8 -0.75     226.985849974248     128.935459721993     64.9255341414333
47 1 8 -0.75     230.088017679711     129.473356534504     66.8969420689203
48 1 6 0     232.958049752496     131.352912605665     68.5193071511477
49 1 2 0     233.544317819388      134.88037741417      67.427944148331
50 1 20 0     235.676242731867     137.942204844009      68.195470280897
51 1 2 0     237.358063301414     137.505107152185     65.0081525474994
52 1 7 -0.75     240.344264715276     135.771937101197     63.6086422494339
53 1 4 0     240.634104325237     133.057877776677     66.8905641157053
54 1 18 0     243.295012047409     130.085033389029     66.7142164679838
55 1 15 0     243.142707271554     126.809619082098     68.9347012608795
56 1 11 0     242.870482558422     126.780610419656     72.6686212929395
57 1 8 -0.75     241.783080515629     129.451047311949     75.1579657825397
58 1 7 -0.75     239.790669552448     127.340027863918     77.8344008466044
59 1 8 -0.75     241.462243363825     126.311459301049     80.8623927051327
60 1 6 0      240.62156122583      122.39427402543     81.2923547654213
61 1 6 0     242.650404193419     119.935762752019     83.4215465143668
62 1 2 0     245.113369382367     119.702009550565     80.5437139868439
63 1 16 0.375     248.728172536096      118.12768842553     80.7019494234686
64 1 10 0     249.446832076886     121.342454585456     82.7452155211759
65 1 4 0     251.674517570183     122.870227542858     85.3092622062678
66 1 12 0      251.81559964654     126.279258310082     87.0777511462045
67 1 6 0     250.342246404923     129.589210762172     86.0879423388292
68 1 5 0.75     252.235008010506     132.804993610351     84.8104653100183
69 1 1 0     253.857240649573     134.739004387639     87.5592188240242
70 1 10 0     254.675922954733     138.351437232722     88.3403053395654
71 1 15 0     254.783766138744      142.14591776027     87.6335614142147
72 1 3 0.75     254.534521053712     142.482597355682     91.5063910762415
73 1 15 0     254.572826165419     145.922957134353     93.2608273945117
74 1 3 0.75     253.647859750114     148.764867688772     95.7204540887672
75 1 7 -0.75     252.332126906592     152.249155915482     97.1157691969205
76 1 2 0      254.27929997126     154.522979963055     99.0438446332249
77 1 4 0     255.753034559466     157.649770174609     100.251172378835
78 1 2 0     256.389943217681     161.472845255117     100.877580247455
79 1 15 0     259.469587225444      161.23953113427     103.150667326829
80 1 7 -0.75     259.779404150776     159.319131065952     106.370665680192
81 1 7 -0.75     259.123860999569     162.499110093018     108.264514134196
82 1 3 0.75     257.092810360148     165.583527807401     107.541045368533
83 1 3 0.75     255.385047070828     167.109077579107      110.32938748476
84 1 6 0     254.052289799862      169.97226931277     108.757494740228
85 1 3 0.75     255.125777672953      173.18887410836       110.0992191617
86 1 2 0     252.769558873516     172.407634284643     112.686194921101
87 1 6 0     254.077235528278     174.630897638387     114.997809984468
88 1 7 -0.75     254.492267343532     178.306791165149     114.852282613606
89 1 2 0     253.059910000356     177.581278708173      118.18222811761
90 1 3 0.75     255.737309546984     179.875066951206     119.817525298353
91 1 4 0     254.134370887523     182.274206478191     122.466510547982
92 1 3 0.75     252.627942643558     185.682519630388     122.020067573687
93 1 20 0     253.383836127843     188.362826678931     124.917040486414
94 1 6 0      257.01586900504     188.990780606018     123.995881263783
95 1 4 0     257.461276939342     191.988891484013     121.410736265062
96 1 18 0     258.130125382444     195.676156539863     122.427415566478
97 1 5 0.75     260.068560128458     198.912546268693     122.233799808562
98 1 2 0      260.24421228122     202.591232064037     121.612482834139
99 1 6 0     259.217904932942     206.188541225062     121.322863354133
100 1 6 0     255.403072369032     205.593766180655     122.409692546647
101 1 18 0     254.386404144625     204.837230903822     125.905278185657
102 1 18 0     255.390578678592     204.659081473212     129.525618331418
103 1 2 0      256.71894806748     206.636195929346     132.380386443974
104 1 12 0     260.213141911069     208.131416402654      132.46301289707
105 1 3 0.75     258.935363314084      209.84225408552     135.587976620647
106 1 2 0     257.691697921669     207.180062589778     138.050800515449
107 1 12 0     257.567522220224     207.269068482799     141.675603487787
108 1 6 0     254.329904620787     207.473592203791     143.423076435897
109 1 17 0     252.698720631138     204.011581417018     144.341881095795
110 1 6 0     249.703589144748      202.67210297769      142.70825920606
111 1 4 0     246.421360800574     204.960810056645     142.958837506523
112 1 5 0.75     246.637089013011     207.983271593064     145.285970793914
113 1 20 0     243.982888805524      206.70562995571     147.567138426858
114 1 18 0     243.436514411856     208.015364060496     151.174138525785
115 1 6 0     241.956888077112     208.283165129515     154.814122566382
116 1 3 0.75      242.46698784032     206.700219064149     158.301742385282
117 1 4 0     240.731231401603     204.585618135385      160.87777724866
118 1 18 0     238.357893657895     206.730263439927     162.815312466407
119 1 18 0     234.766111747752     206.661829789222     163.596148701214
120 1 6 0     233.275545922939     209.944354171547     162.235985565034
121 1 18 0     235.046789733858     213.193729341008     163.776199841599
122 1 3 0.75     236.649614544563     216.760515525425     162.517578540042
123 1 4 0     234.472365310189     219.965126133138     162.762311924401
124 1 18 0     236.108486807851     222.933291269104     164.452342598488
125 1 18 0     238.241642236161     226.055529669401     165.133049559383
126 1 15 0     240.548593239742      227.11863850678     167.723800715106
127 1 15 0     240.192748016727     224.840563987532     170.773871098252
128 1 2 0     237.651094164607     226.655385884369      173.48408114456
129 1 8 -0.75     239.224455445711      226.46934037325     176.728553312849
130 1 18 0     242.237603970512     223.944089403978     177.491174282361
131 1 18 0     243.978181815353     223.679159797465     181.058878169429
132 1 3 0.75     244.890567306537     220.344417615637     182.902204943316
133 1 15 0     248.028698197965     221.225572526538     184.500765941348
134 1 2 0     250.321762160022     222.827534840538     186.691022177643
135 1 7 -0.75     254.070238245365     223.099043684027     187.285832728053
136 1 5 0.75      257.14737420605     224.168989132058     188.923136058017
137 1 15 0     259.318538451828     222.179251082737     191.356330452125
138 1 2 0     261.975102438958     221.022792769905       193.6190789845
139 1 9 0     261.874484709142     222.215888431917      197.20620829623
140 1 15 0     263.108897675323     225.315048433509     199.102393498489
141 1 15 0     265.798327269215     226.475676657436     196.408612499279
142 1 18 0     268.569702681786     225.673942324015     198.414128002044
143 1 2 0     269.785366681735     222.725586860439     200.484990980488
144 1 15 0     270.184012372603     224.515684423351      203.99915179661
145 1 18 0     269.132614950579     225.022548230748     207.707222867738
146 1 2 0     272.699893412347     225.886810186385     208.732589107011
147 1 4 0     272.085058734867     224.104672893491     212.390296406823
148 1 18 0     275.134020109491     226.134433297546     213.803080123847
149 1 2 0     277.127900976824     223.836045894521     215.699119802959
150 1 15 0     276.488397604421     220.215803462774     214.283113249503
151 1 5 0.75     277.380541329302     219.245341009854     218.115886094252
152 1 15 0     274.811407877615     219.561450924038       220.8782845305
153 1 5 0.75     272.547808841441     221.920728926621     222.707836918881
154 1 4 0     272.876422645165     220.483537603467     226.122138547022
155 1 18 0     275.082923997501     218.104127944384     228.288993888134
156 1 15 0     278.138378283918     220.485508363476     227.382076931742
157 1 11 0     279.727354906716     222.118476560685     224.407429979413
158 1 18 0     282.811933988841     223.239153008738     222.557223201099
159 1 4 0     286.012417224448     224.121745327181     221.207720872211
160 1 18 0     285.035151985427     225.415188023106     218.011703604673
161 1 18 0     284.862000926604     228.994179951733     217.699564378224
162 1 4 0     281.770355662743     230.287080494624     215.993508591828
163 1 5 0.75      281.07506433076     233.892070619835      217.52288268972
164 1 8 -0.75     280.253992682054     237.121076018276     215.318742562645
165 1 18 0     278.094952691372     237.188023687109     212.012612660402
166 1 3 0.75     274.293906234688     237.674116302504     212.411365224212
167 1 3 0.75     271.351756065668     236.802736531071     210.074531421996
168 1 10 0     272.957806630872     234.903194315409     207.184762029885
169 1 6 0     275.157931396449     236.765343857276     204.530501250526
170 1 10 0      271.84374001161      237.75162384048     202.873869943693
171 1 10 0     269.063070000347      240.56390830994     203.080284663851
172 1 5 0.75      267.43879796844     243.595569092754     204.026712389446
173 1 4 0     266.398291510803     245.558053444774     206.912107952736
174 1 18 0     264.875563842954     248.801035034091     208.388373077091
175 1 18 0     264.233136957802     251.867474327404      206.27356276104
176 1 3 0.75     266.303847319531     255.107922797479      206.33033682158
177 1 15 0     265.067278848562     258.445295296914     205.297198004291
178 1 18 0     263.429529436685      260.70879573182     202.315454244986
179 1 15 0     264.204653184518     261.384832888065     198.446729461833
180 1 15 0     264.886317123978     258.215298691058     196.380732734992
181 1 6 0     268.498923177922     257.860158401378     195.148777067225
182 1 3 0.75     271.613134513663     259.073339394639     195.870469119467
183 1 15 0     271.099865445657     262.765898790753     196.461405040226
184 1 5 0.75     270.884209627295     265.806946257776     193.967812053426
185 1 11 0     273.651843491404     268.632852178921     195.156476099825
ITEM: TIMESTEP
200000
ITEM: NUMBER OF ATOMS
185
ITEM: BOX BOUNDS pp pp pp
-3.0000000000000000e+02 3.0000000000000000e+02
-3.0000000000000000e+02 3.0000000000000000e+02
-3.0000000000000000e+02 3.0000000000000000e+02
ITEM: ATOMS id mol type q xu yu zu
1 1 1 0     250.575143482576     127.871950039357     48.8027811054922
2 1 6 0      246.94120884168     127.524151962481     48.2549815351638
3 1 8 -0.75     244.563056844546     130.393413242209     49.5881254324754
4 1 18 0     242.492080015653     133.124005765374     51.3922250819292
5 1 5 0.75     239.420060304643     131.245712301074     53.3348452991955
6 1 12 0     237.942037602721     130.885495500683     56.8728414852005
7 1 8 -0.75     241.768385413906     130.741002247705     57.4063978973826
8 1 14 0     243.212139666385     127.750036171709     59.1152796248866
9 1 8 -0.75     244.647930129711     126.283239757024     62.5216119394382
10 1 10 0     243.223480179242     122.939067147193     64.4978190516686
11 1 1 0     241.235321007315     123.444136557365     67.9361678425415
12 1 8 -0.75     242.090403152082     122.331711255522     71.3679009527854
13 1 7 -0.75     239.587125963091     121.213748094035     74.3124957707103
14 1 16 0.375     242.789959845076     122.561837885153     75.3812190038134
15 1 6 0     246.081426380484     124.497186329184     75.8968073792874
16 1 2 0     248.408962843455     121.815856638798     77.2894498406557
17 1 4 0     248.958245270633     121.925098135783     80.8875347827438
18 1 9 0     248.314192807942     120.118458697549     84.4686299133126
19 1 2 0      244.91606923762     121.530419240565     85.5279779178033
20 1 11 0     241.464346284245      121.25260749354     84.2619994198455
21 1 2 0     241.282636849255     121.166070566868     80.3285557554423
22 1 7 -0.75     243.389673955438      118.49633050831     78.7448180169628
23 1 5 0.75     245.510813793335     116.196160435936     75.8748622013805
24 1 3 0.75      248.62297851538     116.524894200982     77.9126871091066
25 1 7 -0.75     252.149148019771     117.071612857367     78.9191815960868
26 1 12 0     255.601206869887     117.195780946013     77.1126135554849