ITEM: TIMESTEP
0
ITEM: NUMBER OF ATOMS
176
ITEM: BOX BOUNDS pp pp pp
-3.0000000000000000e+02 3.0000000000000000e+02
-3.0000000000000000e+02 3.0000000000000000e+02
-3.0000000000000000e+02 3.0000000000000000e+02
ITEM: ATOMS id mol type q xu yu zu
1 1 2 0 6 0 0
2 1 19 0 12 0 0
3 1 17 0 18 0 0
4 1 14 0 24 0 0
5 1 17 0 30 0 0
6 1 4 0 36 0 0
7 1 18 0 42 0 0
8 1 12 0 48 0 0
9 1 12 0 54 0 0
10 1 17 0 60 0 0
11 1 3 0.75 66 0 0
12 1 4 0 72 0 0
13 1 18 0 78 0 0
14 1 14 0 84 0 0
15 1 15 0 90 0 0
16 1 14 0 96 0 0
17 1 2 0 102 0 0
18 1 4 0 108 0 0
19 1 6 0 114 0 0
20 1 17 0 120 0 0
21 1 17 0 126 0 0
22 1 17 0 132 0 0
23 1 15 0 138 0 0
24 1 17 0 144 0 0
25 1 4 0 150 0 0
26 1 4 0 156 0 0
27 1 17 0 162 0 0
28 1 12 0 168 0 0
29 1 17 0 174 0 0
30 1 15 0 180 0 0
31 1 15 0 186 0 0
32 1 4 0 192 0 0
33 1 2 0 198 0 0
34 1 6 0 204 0 0
35 1 2 0 210 0 0
36 1 6 0 216 0 0
37 1 14 0 222 0 0
38 1 2 0 228 0 0
39 1 4 0 234 0 0
40 1 2 0 240 0 0
41 1 12 0 246 0 0
42 1 15 0 252 0 0
43 1 4 0 258 0 0
44 1 14 0 264 0 0
45 1 2 0 270 0 0
46 1 14 0 276 0 0
47 1 17 0 282 0 0
48 1 17 0 288 0 0
49 1 15 0 294 0 0
50 1 6 0 300 0 0
51 1 18 0 300 6 0
52 1 17 0 300 12 0
53 1 17 0 300 18 0
54 1 4 0 300 24 0
55 1 17 0 300 30 0
56 1 17 0 300 36 0
57 1 6 0 300 42 0
58 1 17 0 300 48 0
59 1 15 0 300 54 0
60 1 15 0 300 60 0
61 1 20 0 300 66 0
62 1 4 0 300 72 0
63 1 18 0 300 78 0
64 1 6 0 300 84 0
65 1 14 0 300 90 0
66 1 2 0 300 96 0
67 1 15 0 300 102 0
68 1 17 0 300 108 0
69 1 17 0 300 114 0
70 1 4 0 300 120 0
71 1 2 0 300 126 0
72 1 17 0 300 132 0
73 1 4 0 300 138 0
74 1 6 0 300 144 0
75 1 14 0 300 150 0
76 1 2 0 300 156 0
77 1 17 0 300 162 0
78 1 15 0 300 168 0
79 1 17 0 300 174 0
80 1 18 0 300 180 0
81 1 4 0 300 186 0
82 1 15 0 300 192 0
83 1 17 0 300 198 0
84 1 10 0 300 204 0
85 1 14 0 300 210 0
86 1 2 0 300 216 0
87 1 15 0 300 222 0
88 1 17 0 300 228 0
89 1 17 0 300 234 0
90 1 15 0 300 240 0
91 1 4 0 300 246 0
92 1 4 0 300 252 0
93 1 17 0 300 258 0
94 1 4 0 300 264 0
95 1 14 0 300 270 0
96 1 2 0 300 276 0
97 1 15 0 300 282 0
98 1 17 0 300 288 0
99 1 15 0 300 294 0
100 1 6 0 300 300 0
101 1 2 0 300 300 6
102 1 4 0 300 300 12
103 1 15 0 300 300 18
104 1 11 0 300 300 24
105 1 14 0 300 300 30
106 1 2 0 300 300 36
107 1 15 0 300 300 42
108 1 15 0 300 300 48
109 1 15 0 300 300 54
110 1 6 0 300 300 60
111 1 12 0 300 300 66
112 1 12 0 300 300 72
113 1 4 0 300 300 78
114 1 3 0.75 300 300 84
115 1 15 0 300 300 90
116 1 17 0 300 300 96
117 1 2 0 300 300 102
118 1 4 0 300 300 108
119 1 6 0 300 300 114
120 1 2 0 300 300 120
121 1 2 0 300 300 126
122 1 17 0 300 300 132
123 1 4 0 300 300 138
124 1 14 0 300 300 144
125 1 2 0 300 300 150
126 1 15 0 300 300 156
127 1 15 0 300 300 162
128 1 15 0 300 300 168
129 1 11 0 300 300 174
130 1 14 0 300 300 180
131 1 17 0 300 300 186
132 1 17 0 300 300 192
133 1 15 0 300 300 198
134 1 4 0 300 300 204
135 1 17 0 300 300 210
136 1 15 0 300 300 216
137 1 17 0 300 300 222
138 1 4 0 300 300 228
139 1 4 0 300 300 234
140 1 3 0.75 300 300 240
141 1 18 0 300 300 246
142 1 6 0 300 300 252
143 1 14 0 300 300 258
144 1 2 0 300 300 264
145 1 2 0 300 300 270
146 1 11 0 300 300 276
147 1 17 0 300 300 282
148 1 14 0 300 300 288
149 1 2 0 300 300 294
150 1 2 0 300 300 300
151 1 2 0 300 300 306
152 1 17 0 300 300 312
153 1 17 0 300 300 318
154 1 4 0 300 300 324
155 1 4 0 300 300 330
156 1 18 0 300 300 336
157 1 15 0 300 300 342
158 1 15 0 300 300 348
159 1 4 0 300 300 354
160 1 2 0 300 300 360
161 1 17 0 300 300 366
162 1 6 0 300 300 372
163 1 17 0 300 300 378
164 1 4 0 300 300 384
165 1 15 0 300 300 390
166 1 17 0 300 300 396
167 1 17 0 300 300 402
168 1 11 0 300 300 408
169 1 14 0 300 300 414
170 1 2 0 300 300 420
171 1 6 0 300 300 426
172 1 4 0 300 300 432
173 1 6 0 300 300 438
174 1 17 0 300 300 444
175 1 6 0 300 300 450
176 1 17 0 300 300 456
ITEM: TIMESTEP
100000
ITEM: NUMBER OF ATOMS
176
ITEM: BOX BOUNDS pp pp pp
-3.0000000000000000e+02 3.0000000000000000e+02
-3.0000000000000000e+02 3.0000000000000000e+02
-3.0000000000000000e+02 3.0000000000000000e+02
ITEM: ATOMS id mol type q xu yu zu
1 1 2 0 234.052 81.4047 42.7363
2 1 19 0 234.197 80.4475 38.8197
3 1 17 0 231.657 78.9275 35.8632
4 1 14 0 230.046 79.576 32.475
5 1 17 0 226.572 81.2012 30.8793
6 1 4 0 225.159 78.9666 28.0937
7 1 18 0 226.502 80.9204 24.7295
8 1 12 0 224.635 84.248 23.9299
9 1 12 0 224.996 87.8187 25.2613
10 1 17 0 225.736 91.1979 26.4155
11 1 3 0.75 222.966 93.6841 25.1286
12 1 4 0 223.225 92.1765 21.4617
13 1 18 0 223.074 94.4305 18.6745
14 1 14 0 222.871 98.0909 19.0137
15 1 15 0 222.54 100.996 21.53
16 1 14 0 224.77 102.607 24.0243
17 1 2 0 225.356 104.037 27.4856
18 1 4 0 225.726 103.549 31.0684
19 1 6 0 226.784 101.028 33.656
20 1 17 0 227.455 103.453 36.1963
21 1 17 0 226.305 106.251 39.1483
22 1 17 0 223.365 105.757 41.5308
23 1 15 0 219.305 105.567 41.3814
24 1 17 0 218.292 102.776 43.713
25 1 4 0 215.582 100.434 44.838
26 1 4 0 216.562 97.9883 47.9143
27 1 17 0 220.087 98.7815 48.9322
28 1 12 0 223.189 100.508 49.9282
29 1 17 0 226.387 103.085 48.3349
30 1 15 0 230.381 104.178 48.4031
31 1 15 0 229.896 103.463 52.1142
32 1 4 0 230.612 106.006 55.2641
33 1 2 0 229.592 105.642 58.9488
34 1 6 0 229.288 109.126 60.1985
35 1 2 0 230.627 112.316 61.4007
36 1 6 0 231.949 112.588 65.0624
37 1 14 0 233.966 110.018 66.9749
38 1 2 0 234.221 106.107 67.2373
39 1 4 0 235.013 102.242 67.6142
40 1 2 0 235.047 99.311 70.2853
41 1 12 0 232.269 96.7286 69.4071
42 1 15 0 230.115 99.3527 71.1472
43 1 4 0 228.478 101.498 74.0037
44 1 14 0 226.066 104.314 75.3724
45 1 2 0 223.549 102.074 77.2129
46 1 14 0 219.753 101.736 77.6989
47 1 17 0 217.567 104.784 78.1816
48 1 17 0 216.12 107.911 76.3301
49 1 15 0 215.438 111.1 78.7432
50 1 6 0 219.214 110.949 79.9396
51 1 18 0 220.291 113.541 82.3865
52 1 17 0 223.249 115.66 80.8394
53 1 17 0 223.516 119.333 80.5387
54 1 4 0 222.146 121.138 83.3557
55 1 17 0 221.784 122.297 87.1003
56 1 17 0 220.558 118.676 88.5112
57 1 6 0 222.124 118.826 92.0049
58 1 17 0 221.152 116.093 94.2995
59 1 15 0 220.278 113.445 91.637
60 1 15 0 223.147 112.395 89.1684
61 1 20 0 226.537 113.797 88.1399
62 1 4 0 228.914 111.683 90.4476
63 1 18 0 232.34 112.969 91.4392
64 1 6 0 233.685 109.183 91.5147
65 1 14 0 236.639 109.171 94.1965
66 1 2 0 239.027 110.919 92.2382
67 1 15 0 241.715 113.973 91.7567
68 1 17 0 242.533 116.709 94.5873
69 1 17 0 242.509 119.585 91.9936
70 1 4 0 245.862 119.399 91.4906
71 1 2 0 248.203 120.617 88.9438
72 1 17 0 251.547 120.05 87.6647
73 1 4 0 254.436 121.076 90.1857
74 1 6 0 255.39 124.106 92.4934
75 1 14 0 257.615 127.04 93.9306
76 1 2 0 255.336 128.723 91.5767
77 1 17 0 255.623 131.36 87.9729
78 1 15 0 256.629 131.305 84.0357
79 1 17 0 254.075 130.608 81.4199
80 1 18 0 252.985 134.062 81.3456
81 1 4 0 254.705 136.41 83.599
82 1 15 0 255.187 137.092 87.5526
83 1 17 0 256.712 138.728 90.7217
84 1 10 0 257.576 140.143 94.1954
85 1 14 0 257.9 143.922 94.4986
86 1 2 0 256.203 145.944 97.4496
87 1 15 0 256.577 148.951 99.4448
88 1 17 0 254.247 152.234 99.9138
89 1 17 0 251.046 150.918 101.445
90 1 15 0 249.026 153.86 101.485
91 1 4 0 251.1 157.181 101.374
92 1 4 0 254.365 159.323 101.822
93 1 17 0 256.583 160.619 104.626
94 1 4 0 258.111 163.742 103.744
95 1 14 0 258.266 167.359 102.739
96 1 2 0 257.968 168.971 106.25
97 1 15 0 259.646 172.569 107.115
98 1 17 0 257.59 176.121 106.755
99 1 15 0 257.881 178.625 103.856
100 1 6 0 258.125 182.316 103.992
101 1 2 0 256.766 183.39 107.134
102 1 4 0 259.194 185.776 108.792
103 1 15 0 258.457 187.557 112.211
104 1 11 0 255.359 187.956 114.726
105 1 14 0 255.218 190.686 117.419
106 1 2 0 257.821 191.024 120.811
107 1 15 0 257.763 194.738 121.433
108 1 15 0 255.179 192.961 123.943
109 1 15 0 252.491 194.241 122.183
110 1 6 0 253.056 197.72 123.54
111 1 12 0 254.461 201.173 124.747
112 1 12 0 251.506 203.083 123.809
113 1 4 0 252.553 206.411 124.889
114 1 3 0.75 250.481 208.816 127.35
115 1 15 0 247.295 209.84 125.839
116 1 17 0 246.141 213.066 124.035
117 1 2 0 245.349 216.762 123.172
118 1 4 0 241.677 217.454 124.277
119 1 6 0 240.704 219.448 121.493
120 1 2 0 240.424 223.098 120.672
121 1 2 0 236.689 224.235 120.382
122 1 17 0 237.622 226.587 123.14
123 1 4 0 239.674 228.802 125.828
124 1 14 0 243.661 229.931 125.812
125 1 2 0 245.505 232.41 123.781
126 1 15 0 244.75 235.814 123.44
127 1 15 0 244.495 239.785 123.455
128 1 15 0 245.039 241.48 126.698
129 1 11 0 246.987 244.711 126.651
130 1 14 0 246.804 247.184 129.793
131 1 17 0 248.49 250.868 129.285
132 1 17 0 251.172 252.109 132.191
133 1 15 0 251.26 255.104 134.62
134 1 4 0 250.354 256.698 138.145
135 1 17 0 249.795 254.234 141.139
136 1 15 0 245.896 254.939 141.44
137 1 17 0 246.321 257.857 144
138 1 4 0 248.62 259.733 146.486
139 1 4 0 252.263 258.912 147.612
140 1 3 0.75 252.277 260.92 150.36
141 1 18 0 252.968 259.893 154.372
142 1 6 0 255.922 262.045 154.508
143 1 14 0 258.111 261.491 157.838
144 1 2 0 260.791 263.458 159.829
145 1 2 0 261.063 261.361 162.944
146 1 11 0 264.372 263.603 163.847
147 1 17 0 267.928 263.641 165.015
148 1 14 0 270.76 265.832 166.266
149 1 2 0 273.056 262.797 166.914
150 1 2 0 273.032 259.473 164.915
151 1 2 0 269.809 258.911 167.429
152 1 17 0 271.32 255.381 167.46
153 1 17 0 274.099 254.753 170.167
154 1 4 0 273.623 257.83 172.534
155 1 4 0 272.555 256.02 175.989
156 1 18 0 273.855 258.85 177.781
157 1 15 0 272.065 262.255 177.57
158 1 15 0 271.95 264.161 180.734
159 1 4 0 268.29 264.374 181.072
160 1 2 0 264.916 262.507 180.814
161 1 17 0 262.143 260.618 182.879
162 1 6 0 263.336 257.063 181.745
163 1 17 0 265.208 253.943 182.391
164 1 4 0 266.4 253.795 185.722
165 1 15 0 266.517 250.042 186.649
166 1 17 0 263.169 248.247 185.7
167 1 17 0 261.704 245.501 187.329
168 1 11 0 261.541 245.24 191.432
169 1 14 0 264.576 247.824 192.383
170 1 2 0 265.928 245.852 195.859
171 1 6 0 268.375 247.619 198.126
172 1 4 0 270.02 245.775 200.882
173 1 6 0 273.022 245.343 198.177
174 1 17 0 271.347 242.473 196.166
175 1 6 0 270.589 238.927 194.656
176 1 17 0 272.181 235.298 194.851
ITEM: TIMESTEP
200000
ITEM: NUMBER OF ATOMS
176
ITEM: BOX BOUNDS pp pp pp
-3.0000000000000000e+02 3.0000000000000000e+02
-3.0000000000000000e+02 3.0000000000000000e+02
-3.0000000000000000e+02 3.0000000000000000e+02
ITEM: ATOMS id mol type q xu yu zu
1 1 2 0 269.797 126.458 7.00736
2 1 19 0 266.593 124.934 8.70309
3 1 17 0 266.025 127.478 11.3769
4 1 14 0 267.767 128.474 14.5866
5 1 17 0 271.404 128.144 15.4509
6 1 4 0 272.474 126.651 18.8199
7 1 18 0 272.402 123.224 19.8748
8 1 12 0 274.033 121.023 22.8747
9 1 12 0 276.072 121.634 26.1388
10 1 17 0 277.502 120.389 29.3448
11 1 3 0.75 274.544 120.228 31.4895
12 1 4 0 273.901 116.402 31.2268
13 1 18 0 271.01 116.209 33.5084
14 1 14 0 268.276 114.795 36.0152
15 1 15 0 269.276 116.278 39.2746
16 1 14 0 270.428 119.311 41.0551
17 1 2 0 268.529 122.407 40.1951
18 1 4 0 269.034 126.258 40.3833
19 1 6 0 266.396 128.441 38.7636
20 1 17 0 264.794 130.219 41.677
21 1 17 0 263.925 133.413 39.6245
22 1 17 0 265.604 137.04 40.4448
23 1 15 0 267.543 138.399 43.3138
24 1 17 0 268.06 141.792 45.058
25 1 4 0 270.12 143.28 47.8986
26 1 4 0 270.169 145.73 50.7864
27 1 17 0 272.281 148.068 53.2061
28 1 12 0 274.174 149.911 50.241
29 1 17 0 274.97 147.792 47.1587
30 1 15 0 276.279 146.286 43.9154
31 1 15 0 273.245 146.51 41.5291
32 1 4 0 271.695 148.893 39.532
33 1 2 0 268.372 149.758 41.168
34 1 6 0 266.221 151.76 38.5456
35 1 2 0 265.015 152.838 41.9935
36 1 6 0 263.902 155.515 43.8545
37 1 14 0 265.011 154.774 47.2657
38 1 2 0 264.461 157.502 50.2982
39 1 4 0 266.159 160.924 50.5141
40 1 2 0 267.434 159.543 54.0594
41 1 12 0 268.696 161.453 56.6314
42 1 15 0 269.56 158.469 58.8285
43 1 4 0 271.758 155.982 57.5734
44 1 14 0 275.259 156.91 58.6424
45 1 2 0 275.585 160.64 59.3915
46 1 14 0 278.714 162.566 60.1469
47 1 17 0 281.886 164.209 58.2771
48 1 17 0 285.457 162.916 59.3832
49 1 15 0 288.323 165.389 59.6754
50 1 6 0 288.877 163.577 63.2151
51 1 18 0 287.83 160.91 65.8755
52 1 17 0 286.358 162.247 69.4837
53 1 17 0 289.361 161.426 71.8225
54 1 4 0 288.99 157.96 73.5407
55 1 17 0 288.819 153.902 72.9456
56 1 17 0 285.081 153.252 71.4014
57 1 6 0 282.267 154.824 73.5969
58 1 17 0 282.323 158.64 73.6723
59 1 15 0 278.295 159.101 73.9578
60 1 15 0 275.556 158.421 71.0781
61 1 20 0 276.806 158.401 67.495
62 1 4 0 276.812 161.903 66.7215
63 1 18 0 274.565 164.89 67.1243
64 1 6 0 272.893 165.049 63.7044
65 1 14 0 269.291 164.949 63.1389
66 1 2 0 267.238 162.707 65.7965
67 1 15 0 266.128 162.119 69.3933
68 1 17 0 265.049 160.906 72.4573
69 1 17 0 264.12 162.929 75.1854
70 1 4 0 261.887 160.947 77.5459
71 1 2 0 259.531 163.144 79.7172
72 1 17 0 259.63 160.825 82.623
73 1 4 0 258.763 160.705 86.3797
74 1 6 0 255.791 162.503 88.1486
75 1 14 0 256.498 165.075 90.3932
76 1 2 0 259.864 166.561 91.737
77 1 17 0 259.747 169.141 94.5861
78 1 15 0 258.038 169.411 97.9953
79 1 17 0 254.336 170.321 98.5214
80 1 18 0 250.643 170.911 98.6202
81 1 4 0 248.807 173.947 97.1934
82 1 15 0 246.73 177.192 97.9788
83 1 17 0 248.333 180.15 99.8074
84 1 10 0 250.946 177.859 101.062
85 1 14 0 254.436 176.936 102.278
86 1 2 0 255.34 174.292 104.644
87 1 15 0 259.139 174.3 105.807
88 1 17 0 261.769 176.216 104.398
89 1 17 0 265.061 176.228 103.265
90 1 15 0 267.355 178.684 104.607
91 1 4 0 269.61 181.586 106.013
92 1 4 0 270.906 182.196 109.42
93 1 17 0 272.175 181.894 112.846
94 1 4 0 270.386 182.794 115.54
95 1 14 0 270.352 182.686 119.429
96 1 2 0 273.287 182.346 121.759
97 1 15 0 274.364 179.605 124.17
98 1 17 0 271.507 179.767 126.518
99 1 15 0 273.35 176.864 128.264
100 1 6 0 270.981 173.65 127.904
101 1 2 0 268.932 171.3 130.332
102 1 4 0 265.857 173.576 130.821
103 1 15 0 265.647 177.242 130.075
104 1 11 0 265.154 178.913 126.733
105 1 14 0 262.655 181.474 125.357
106 1 2 0 260.698 184.221 126.108
107 1 15 0 261.737 187.988 126.039
108 1 15 0 257.834 188.091 126.223
109 1 15 0 255.955 185.721 123.729
110 1 6 0 254.81 182.19 124.42
111 1 12 0 253.728 181.06 128.114
112 1 12 0 255.957 181.021 131.139
113 1 4 0 254.747 182.033 134.659
114 1 3 0.75 251.875 181.95 137.116
115 1 15 0 248.56 183.586 136.852
116 1 17 0 245.28 182.362 139.111
117 1 2 0 242.557 184.856 140.091
118 1 4 0 239.576 187.488 139.924
119 1 6 0 239.773 190.049 142.495
120 1 2 0 241.194 191.809 146.09
121 1 2 0 242.058 192.558 150.202
122 1 17 0 239.495 195.095 150.554
123 1 4 0 238.901 198.759 150.626
124 1 14 0 236.329 201.071 151.414
125 1 2 0 236.405 204.882 150.625
126 1 15 0 235.467 207.701 152.809
127 1 15 0 235.366 209.41 156.149
128 1 15 0 231.483 210.49 156.113
129 1 11 0 229.644 210.426 159.398
130 1 14 0 228.454 214.24 160.026
131 1 17 0 227.192 218.04 159.808
132 1 17 0 228.554 220.454 162.429
133 1 15 0 231.913 219.358 163.759
134 1 4 0 234.252 219.231 160.881
135 1 17 0 236.409 218.477 157.722
136 1 15 0 237.043 221.967 156.393
137 1 17 0 238.762 224.005 153.689
138 1 4 0 239.785 221.771 150.645
139 1 4 0 242.061 223.356 147.831
140 1 3 0.75 239.685 224.628 144.984
141 1 18 0 237.652 225.919 142.137
142 1 6 0 235.702 228.625 140.236
143 1 14 0 233.496 230.649 142.558
144 1 2 0 235.121 229.461 145.575
145 1 2 0 234.438 231.949 148.535
146 1 11 0 231.992 234.54 147.689
147 1 17 0 233.376 238.15 147.807
148 1 14 0 234.269 241.605 149.371
149 1 2 0 231.369 244.014 150.07
150 1 2 0 228.48 242.324 151.54
151 1 2 0 227.343 245.131 153.881
152 1 17 0 230.581 247.089 154.372
153 1 17 0 233.489 249.499 153.094
154 1 4 0 232.424 250.182 149.276
155 1 4 0 234.17 252.918 146.718
156 1 18 0 234.025 255.588 143.725
157 1 15 0 236.353 258.086 142.373
158 1 15 0 237.81 259.246 146.014
159 1 4 0 241.088 259.264 147.703
160 1 2 0 239.956 259.824 151.008
161 1 17 0 241.137 261.91 153.956
162 1 6 0 241.804 265.45 154.839
163 1 17 0 239.053 268.479 155.658
164 1 4 0 238.043 267.128 158.959
165 1 15 0 235.246 264.781 157.573
166 1 17 0 232.014 265.714 155.991
167 1 17 0 230.82 268.353 153.194
168 1 11 0 232.696 268.029 149.66
169 1 14 0 235.075 265.637 149.4
170 1 2 0 238.733 265.459 149.201
171 1 6 0 241.843 267.736 148.723
172 1 4 0 242.391 271.443 149.176
173 1 6 0 242.725 275.066 148.989
174 1 17 0 245.077 278.346 148.132
175 1 6 0 247.185 275.792 149.887
176 1 17 0 246.799 274.032 153.4
ITEM: TIMESTEP
300000
ITEM: NUMBER OF ATOMS
176
ITEM: BOX BOUNDS pp pp pp
-3.0000000000000000e+02 3.0000000000000000e+02
-3.0000000000000000e+02 3.0000000000000000e+02
-3.0000000000000000e+02 3.0000000000000000e+02
ITEM: ATOMS id mol type q xu yu zu
1 1 2 0 241.698 108.843 61.919
2 1 19 0 240.954 112.636 61.1586
3 1 17 0 238.377 112.177 64.1451
4 1 14 0 235.74 114.895 63.7782
5 1 17 0 235.949 118.009 61.4269
6 1 4 0 238.714 120.267 59.7917
7 1 18 0 239.706 123.644 57.7327
8 1 12 0 241.283 126.327 55.7438
9 1 12 0 242.603 124.271 53.1102
10 1 17 0 243.496 121.935 50.0795
11 1 3 0.75 240.579 119.326 50.9049
12 1 4 0 240.692 115.467 51.5244
13 1 18 0 241.905 112.047 51.8001
14 1 14 0 245.598 110.615 51.4371
15 1 15 0 248.426 110.485 48.3159
16 1 14 0 251.116 112.719 46.8744
17 1 2 0 250.258 115.025 44.0047
18 1 4 0 251.842 116.375 40.9354
19 1 6 0 254.209 118.248 43.0172
20 1 17 0 257.499 116.195 43.4274
21 1 17 0 258.083 117.511 46.8603
22 1 17 0 259.779 117.2 50.3387
23 1 15 0 258.671 117.582 54.0976
24 1 17 0 260.232 114.747 56.2341
25 1 4 0 259.058 114.283 60.1003
26 1 4 0 261.597 115.422 62.6892
27 1 17 0 261.703 119.327 61.9906
28 1 12 0 262.216 120.187 58.3465
29 1 17 0 264.918 122.978 58.908
30 1 15 0 263.536 125.308 61.7382
31 1 15 0 265.563 128.108 62.3974
32 1 4 0 266.592 130.423 65.3968
33 1 2 0 268.703 127.573 66.3371
34 1 6 0 272.624 128.726 65.6449
35 1 2 0 275.979 131.061 65.9553
36 1 6 0 274.06 134.236 66.3905
37 1 14 0 271.701 135.193 69.637
38 1 2 0 271.006 134.229 73.0179
39 1 4 0 273.723 134.076 75.4103
40 1 2 0 273.039 130.495 74.8355
41 1 12 0 269.381 129.833 75.4818
42 1 15 0 266.465 129 77.6613
43 1 4 0 265.091 132.24 78.8965
44 1 14 0 263.55 133.53 82.0391
45 1 2 0 261.477 130.793 83.6336
46 1 14 0 261.698 130.54 87.4793
47 1 17 0 263.555 132.615 89.6966
48 1 17 0 261.815 135.696 91.3641
49 1 15 0 264.499 138.039 93.2017
50 1 6 0 262.52 141.409 92.312
51 1 18 0 263.02 144.358 89.992
52 1 17 0 262.178 147.462 92.5168
53 1 17 0 263.805 149.689 95.0252
54 1 4 0 267.507 149.888 94.8046
55 1 17 0 270.11 147.126 93.6271
56 1 17 0 273.288 149.338 94.04
57 1 6 0 276.532 147.437 95.3419
58 1 17 0 275.073 144.15 96.8019
59 1 15 0 272.901 142.867 99.6989
60 1 15 0 272.763 143.739 103.222
61 1 20 0 273.504 144.814 106.833
62 1 4 0 276.073 142.191 107.536
63 1 18 0 277.975 141.252 104.555
64 1 6 0 276.442 137.724 104.116
65 1 14 0 276.832 134.138 105.099
66 1 2 0 279.465 134.621 107.608
67 1 15 0 280.134 137.855 109.672
68 1 17 0 278.237 139.116 112.828
69 1 17 0 274.929 139.519 114.621
70 1 4 0 274.6 143.287 114.853
71 1 2 0 273.202 146.413 113.257
72 1 17 0 274.704 149.228 115.615
73 1 4 0 277.983 150.803 114.84
74 1 6 0 278.071 152.047 111.39
75 1 14 0 275.343 153.901 109.438
76 1 2 0 273.948 154.66 106.339
77 1 17 0 271.07 156.022 104.692
78 1 15 0 268.276 153.882 103.009
79 1 17 0 265.769 150.922 103.891
80 1 18 0 267.652 148.331 106.209
81 1 4 0 267.057 146.915 109.843
82 1 15 0 269.318 149.632 111.672
83 1 17 0 268.262 152.233 114.562
84 1 10 0 267.268 155.625 116.469
85 1 14 0 268.145 158.352 114.364
86 1 2 0 271.564 157.992 115.892
87 1 15 0 270.787 156.779 119.886
88 1 17 0 272.541 157.041 123.147
89 1 17 0 271.547 159.837 125.528
90 1 15 0 268.688 161.926 124.453
91 1 4 0 268.417 165.269 126.403
92 1 4 0 271.094 167.398 128.889
93 1 17 0 272.917 165.763 131.915
94 1 4 0 270.91 162.478 131.179
95 1 14 0 267.648 160.163 131.345
96 1 2 0 266.543 161.692 134.786
97 1 15 0 263.314 163.754 135.741
98 1 17 0 262.247 164.52 132.38
99 1 15 0 260.601 167.519 131.725
100 1 6 0 261.428 170.789 129.88
101 1 2 0 259.539 173.931 130.578
102 1 4 0 257.741 175.962 127.496
103 1 15 0 259.506 179.437 127.83
104 1 11 0 258.808 180.266 124.227
105 1 14 0 256.729 183.322 124.149
106 1 2 0 254.333 186.046 124.818
107 1 15 0 250.642 186.545 123.524
108 1 15 0 248.535 185.978 120.076
109 1 15 0 246.14 188.262 119.761
110 1 6 0 247.46 191.306 122.186
111 1 12 0 251.065 192.354 121.095
112 1 12 0 251.058 196.088 122.106
113 1 4 0 250.667 197.748 125.373
114 1 3 0.75 247.704 196.798 128.173
115 1 15 0 244.507 196.379 130.664
116 1 17 0 240.882 196.512 129.545
117 1 2 0 239.013 196.469 126.308
118 1 4 0 237.696 199.794 125.199
119 1 6 0 235.611 200.28 122.051
120 1 2 0 233.076 202.01 120.834
121 1 2 0 232.685 205.296 118.856
122 1 17 0 229.339 207.441 118.594
123 1 4 0 226.395 207.101 120.61
124 1 14 0 223.854 210.056 120.538
125 1 2 0 221.343 208.249 122.807
126 1 15 0 218.434 207.333 125.361
127 1 15 0 215.028 205.544 125.151
128 1 15 0 214.5 208.515 122.515
129 1 11 0 211.695 210.019 120.754
130 1 14 0 207.844 209.531 120.617
131 1 17 0 205.131 208.629 123.35
132 1 17 0 205.011 205.222 124.829
133 1 15 0 204.241 205.084 128.75
134 1 4 0 207.014 205.512 131.075
135 1 17 0 207.765 208.947 133.148
136 1 15 0 209.759 210.58 135.889
137 1 17 0 211.598 208.627 138.269
138 1 4 0 211.172 210.296 141.856
139 1 4 0 212.081 213.769 143.482
140 1 3 0.75 209.406 216.362 143.508
141 1 18 0 208.222 215.961 139.799
142 1 6 0 204.933 214.106 140.838
143 1 14 0 203.854 210.827 140.046
144 1 2 0 203.235 209.343 136.785
145 1 2 0 200.514 207.362 134.723
146 1 11 0 201.328 203.875 134.418
147 1 17 0 200.505 201.897 137.759
148 1 14 0 203.301 202.826 140.541
149 1 2 0 200.565 203.83 142.931
150 1 2 0 201.442 207.495 143.845
151 1 2 0 197.684 208.302 144.873
152 1 17 0 196.693 211.978 145.246
153 1 17 0 196.733 212.439 141.515
154 1 4 0 197.914 214.302 138.217
155 1 4 0 199.191 217.697 139.098
156 1 18 0 201.113 218.754 142.414
157 1 15 0 200.779 222.455 142.089
158 1 15 0 200.813 225.121 145.091
159 1 4 0 198.087 225.319 147.734
160 1 2 0 195.765 223.181 145.57
161 1 17 0 191.925 224.029 145.779
162 1 6 0 191.01 223.505 141.948
163 1 17 0 187.134 223.761 141.977
164 1 4 0 184.152 226.249 140.966
165 1 15 0 180.958 225.708 139.006
166 1 17 0 178.418 225.301 141.407
167 1 17 0 176.825 226.405 144.314
168 1 11 0 174.633 227.865 146.923
169 1 14 0 172.844 225.212 149.079
170 1 2 0 171.016 222.088 148.609
171 1 6 0 171.569 220.519 152.099
172 1 4 0 170.26 219.021 155.737
173 1 6 0 166.706 219.637 154.251
174 1 17 0 163.41 217.814 155.58
175 1 6 0 163.34 220.079 158.537
176 1 17 0 162.416 223.506 159.408
ITEM: TIMESTEP
400000
ITEM: NUMBER OF ATOMS
176
ITEM: BOX BOUNDS pp pp pp
-3.0000000000000000e+02 3.0000000000000000e+02
-3.0000000000000000e+02 3.0000000000000000e+02
-3.0000000000000000e+02 3.0000000000000000e+02
ITEM: ATOMS id mol type q xu yu zu
1 1 2 0 288.212 77.7535 92.1144
2 1 19 0 286.033 80.2451 93.954
3 1 17 0 283.163 81.2217 91.4972
4 1 14 0 279.491 79.7337 91.5697
5 1 17 0 278.05 82.6503 89.6795
6 1 4 0 277.611 86.7203 89.4542
7 1 18 0 278.551 89.2432 86.5435
8 1 12 0 279.48 92.5533 87.9002
9 1 12 0 282.207 92.1848 90.501
10 1 17 0 282.419 91.4491 94.1536
11 1 3 0.75 283.35 93.8958 97.0499
12 1 4 0 280.642 96.7164 96.0686
13 1 18 0 280.787 100.364 97.0901
14 1 14 0 279.886 103.879 96.9693
15 1 15 0 278.821 103.811 93.287
16 1 14 0 279.934 102.572 90.0297
17 1 2 0 281.34 103.105 86.7999
18 1 4 0 281.715 105.694 83.7286
19 1 6 0 279.67 108.512 85.343
20 1 17 0 278.009 109.92 88.3492
21 1 17 0 276.789 113.011 87.3607
22 1 17 0 280.245 115.519 87.1417
23 1 15 0 281.98 116.002 90.3723
24 1 17 0 283.573 112.753 91.5442
25 1 4 0 283.224 113.521 95.3553
26 1 4 0 282.261 116.789 96.5207
27 1 17 0 281.673 118.682 99.311
28 1 12 0 283.236 119.525 102.795
29 1 17 0 286.282 121.859 102.94
30 1 15 0 287.881 125.345 103.822
31 1 15 0 286.52 125.551 107.231
32 1 4 0 282.584 125.062 107.067
33 1 2 0 279.837 127.064 108.925
34 1 6 0 281.347 130.82 108.352
35 1 2 0 278.664 133.037 107.757
36 1 6 0 277.39 136.867 107.901
37 1 14 0 278.584 137.705 111.761
38 1 2 0 280.001 140.145 109.979
39 1 4 0 280.036 140.814 105.849
40 1 2 0 282.444 141.571 103.427
41 1 12 0 284.935 139.049 102.43
42 1 15 0 285.559 139.705 99.0339
43 1 4 0 282.964 142.565 97.924
44 1 14 0 281.459 145.855 97.1998
45 1 2 0 280.185 147.536 100.01
46 1 14 0 276.883 147.675 101.961
47 1 17 0 273.589 146.933 104.159
48 1 17 0 271.587 144.102 102.285
49 1 15 0 269.047 141.449 101.925
50 1 6 0 266.975 142.572 105.227
51 1 18 0 265.484 145.744 105.192
52 1 17 0 265.858 148.563 102.506
53 1 17 0 268.534 151.396 103.555
54 1 4 0 267.012 154.925 104.957
55 1 17 0 265.856 158.265 105.906
56 1 17 0 263.282 159.805 104.111
57 1 6 0 262.115 156.94 101.751
58 1 17 0 261.516 154.827 98.5793
59 1 15 0 261.215 151.758 101.058
60 1 15 0 258.527 150.571 98.3749
61 1 20 0 256.753 150.654 94.9379
62 1 4 0 253.694 148.79 96.2866
63 1 18 0 251.855 145.548 97.2119
64 1 6 0 248.847 145.621 99.4919
65 1 14 0 246.97 144.385 102.114
66 1 2 0 249.293 145.154 104.916
67 1 15 0 250.279 148.677 105.013
68 1 17 0 253.865 148.271 106.691
69 1 17 0 254.922 148.367 110.26
70 1 4 0 255.458 149.495 113.905
71 1 2 0 257.728 146.591 115.44
72 1 17 0 259.595 148.75 118.193
73 1 4 0 258.626 148.842 122.008
74 1 6 0 255.302 150.374 122.126
75 1 14 0 255.729 154.248 121.673
76 1 2 0 255.764 156.979 119.197
77 1 17 0 257.339 160.438 118.941
78 1 15 0 258.67 161.955 121.834
79 1 17 0 259.702 160.83 125.077
80 1 18 0 257.753 158.643 127.983
81 1 4 0 259.891 158.525 131.24
82 1 15 0 260.446 161.87 132.794
83 1 17 0 258.321 163.943 135.28
84 1 10 0 261.264 165.008 137.786
85 1 14 0 264.926 165.4 138.985
86 1 2 0 265.906 164.975 142.799
87 1 15 0 264.758 161.092 143.876
88 1 17 0 262.022 160.407 146.73
89 1 17 0 259.527 157.576 147.557
90 1 15 0 255.87 157.428 146.546
91 1 4 0 252.754 155.287 146.407
92 1 4 0 253.525 153.918 143.146
93 1 17 0 252.296 155.53 139.216
94 1 4 0 252.853 152.123 136.66
95 1 14 0 250.811 152.132 133.67
96 1 2 0 253.511 153.83 131.55
97 1 15 0 253.472 157.625 131.633
98 1 17 0 249.995 157.09 130.039
99 1 15 0 246.55 158.099 131.504
100 1 6 0 245.464 154.697 133.218
101 1 2 0 245.279 153.628 129.683
102 1 4 0 244.772 151.45 126.984
103 1 15 0 242.243 149.413 126.119
104 1 11 0 238.413 149.766 125.259
105 1 14 0 235.756 149.391 123.062
106 1 2 0 232.671 151.342 121.857
107 1 15 0 229.664 152.358 124.163
108 1 15 0 226.009 153.655 124.969
109 1 15 0 224.638 156.477 127.405
110 1 6 0 221.481 158.38 128.932
111 1 12 0 223.604 160.915 131.009
112 1 12 0 226.475 163.036 130.575
113 1 4 0 228.642 163.042 134.336
114 1 3 0.75 226.82 162.246 137.489
115 1 15 0 224.611 164.845 139.176
116 1 17 0 222.37 167.418 138.23
117 1 2 0 220.692 170.959 137.895
118 1 4 0 218.366 173.083 139.104
119 1 6 0 217.293 175.665 141.557
120 1 2 0 218.396 176.615 144.972
121 1 2 0 217.18 175.418 148.259
122 1 17 0 215.154 175.625 151.737
123 1 4 0 214.284 179.407 152.325
124 1 14 0 217.333 180.682 154.431
125 1 2 0 215.568 183.994 155.633
126 1 15 0 216.531 185.584 158.806
127 1 15 0 217.915 185.452 162.348
128 1 15 0 218.682 184.704 166.15
129 1 11 0 222.463 183.975 166.859
130 1 14 0 223.61 180.34 167.295
131 1 17 0 224.022 179.117 170.952
132 1 17 0 223.72 180.211 174.356
133 1 15 0 225.147 177.236 176.291
134 1 4 0 222.446 176.179 178.43
135 1 17 0 221.997 172.892 180.889
136 1 15 0 221.164 173.534 184.448
137 1 17 0 217.137 174.085 184.412
138 1 4 0 215.967 174.67 180.801
139 1 4 0 216.32 173.494 177.214
140 1 3 0.75 213.68 170.814 178.128
141 1 18 0 210.126 170.241 179.293
142 1 6 0 208.572 167.623 176.826
143 1 14 0 210.697 164.57 176.353
144 1 2 0 211.618 162.409 174.034
145 1 2 0 213.618 163.595 170.884
146 1 11 0 211.641 166.682 169.236
147 1 17 0 210.485 165.69 165.977
148 1 14 0 208.543 165.687 162.583
149 1 2 0 205.368 166.632 162.121
150 1 2 0 203.936 167.13 165.822
151 1 2 0 203.605 168.155 169.674
152 1 17 0 205.469 171.373 169.667
153 1 17 0 205.266 173.374 166.617
154 1 4 0 207.049 175.472 163.634
155 1 4 0 209.709 177.911 164.94
156 1 18 0 208.088 181.318 165.192
157 1 15 0 205.575 184.043 163.311
158 1 15 0 204.088 182.581 159.841
159 1 4 0 201.601 181.239 162.548
160 1 2 0 201.221 177.168 163.705
161 1 17 0 197.684 175.582 164.606
162 1 6 0 194.288 177.016 165.02
163 1 17 0 190.936 178.202 163.566
164 1 4 0 187.634 177.885 160.85
165 1 15 0 184.268 178.818 159.093
166 1 17 0 182.926 180.096 162.461
167 1 17 0 180.794 178.121 164.411
168 1 11 0 177.008 177.192 165.123
169 1 14 0 175.559 179.906 167.278
170 1 2 0 174.996 181.729 164.344
171 1 6 0 177.743 183.61 163.323
172 1 4 0 176.048 185.967 160.918
173 1 6 0 179.539 185.651 158.833
174 1 17 0 180.882 182.877 156.802
175 1 6 0 178.623 179.953 155.27
176 1 17 0 180.209 176.665 155.819
ITEM: TIMESTEP
500000
ITEM: NUMBER OF ATOMS
176
ITEM: BOX BOUNDS pp pp pp
-3.0000000000000000e+02 3.0000000000000000e+02
-3.0000000000000000e+02 3.0000000000000000e+02
-3.0000000000000000e+02 3.0000000000000000e+02
ITEM: ATOMS id mol type q xu yu zu
1 1 2 0 302.861 173.761 89.903
2 1 19 0 299.222 173.451 89.5692
3 1 17 0 296.981 175 91.5976
4 1 14 0 294.258 174.651 94.0788
5 1 17 0 292.427 176.455 96.9646
6 1 4 0 289.135 175.416 98.6558
7 1 18 0 286.767 175.254 95.9318
8 1 12 0 284.959 171.669 95.6845
9 1 12 0 288.633 170.211 96.4947
10 1 17 0 289.622 166.377 96.6737
11 1 3 0.75 288.357 164.964 93.4047
12 1 4 0 287.701 163.74 89.6721
13 1 18 0 287.687 163.367 85.7837
14 1 14 0 287.129 160.268 83.4453
15 1 15 0 288.018 156.716 82.9999
16 1 14 0 289.517 153.179 83.3349
17 1 2 0 286.178 152.032 82.2012
18 1 4 0 282.924 152.208 84.5529
19 1 6 0 282.989 153.132 88.2736
20 1 17 0 282.636 151.38 91.3275
21 1 17 0 281.01 153.367 94.0224
22 1 17 0 280.986 155.733 96.9396
23 1 15 0 281.787 156.98 100.889
24 1 17 0 283.982 158.271 103.672
25 1 4 0 282.391 158.26 107.25
26 1 4 0 281.745 158.898 110.9
27 1 17 0 278.419 157.245 110.973
28 1 12 0 277.853 158.172 114.701
29 1 17 0 276.448 156.127 117.366
30 1 15 0 277.38 158.361 120.383
31 1 15 0 279.016 156.139 122.57
32 1 4 0 277.25 155.668 126.197
33 1 2 0 274.093 155.346 128.7
34 1 6 0 272.635 152.569 126.239
35 1 2 0 269.047 154.168 125.251
36 1 6 0 267.781 157.468 123.806
37 1 14 0 266.067 160.362 121.858
38 1 2 0 263.22 161.578 119.154