ITEM: TIMESTEP
0
ITEM: NUMBER OF ATOMS
93
ITEM: BOX BOUNDS pp pp pp
-3.0000000000000000e+02 3.0000000000000000e+02
-3.0000000000000000e+02 3.0000000000000000e+02
-3.0000000000000000e+02 3.0000000000000000e+02
ITEM: ATOMS id mol type q xu yu zu
1 1 1 0                    6                    0                    0
2 1 8 -0.75                   12                    0                    0
3 1 8 -0.75                   18                    0                    0
4 1 18 0                   24                    0                    0
5 1 12 0                   30                    0                    0
6 1 15 0                   36                    0                    0
7 1 7 -0.75                   42                    0                    0
8 1 18 0                   48                    0                    0
9 1 15 0                   54                    0                    0
10 1 10 0                   60                    0                    0
11 1 8 -0.75                   66                    0                    0
12 1 18 0                   72                    0                    0
13 1 18 0                   78                    0                    0
14 1 11 0                   84                    0                    0
15 1 15 0                   90                    0                    0
16 1 12 0                   96                    0                    0
17 1 8 -0.75                  102                    0                    0
18 1 4 0                  108                    0                    0
19 1 14 0                  114                    0                    0
20 1 15 0                  120                    0                    0
21 1 7 -0.75                  126                    0                    0
22 1 11 0                  132                    0                    0
23 1 13 0                  138                    0                    0
24 1 3 0.75                  144                    0                    0
25 1 11 0                  150                    0                    0
26 1 11 0                  156                    0                    0
27 1 18 0                  162                    0                    0
28 1 8 -0.75                  168                    0                    0
29 1 17 0                  174                    0                    0
30 1 17 0                  180                    0                    0
31 1 10 0                  186                    0                    0
32 1 11 0                  192                    0                    0
33 1 15 0                  198                    0                    0
34 1 18 0                  204                    0                    0
35 1 11 0                  210                    0                    0
36 1 18 0                  216                    0                    0
37 1 15 0                  222                    0                    0
38 1 12 0                  228                    0                    0
39 1 6 0                  234                    0                    0
40 1 1 0                  240                    0                    0
41 1 7 -0.75                  246                    0                    0
42 1 7 -0.75                  252                    0                    0
43 1 11 0                  258                    0                    0
44 1 1 0                  264                    0                    0
45 1 11 0                  270                    0                    0
46 1 15 0                  276                    0                    0
47 1 18 0                  282                    0                    0
48 1 7 -0.75                  288                    0                    0
49 1 7 -0.75                  294                    0                    0
50 1 20 0                  300                    0                    0
51 1 8 -0.75                  300                    6                    0
52 1 12 0                  300                   12                    0
53 1 13 0                  300                   18                    0
54 1 14 0                  300                   24                    0
55 1 4 0                  300                   30                    0
56 1 8 -0.75                  300                   36                    0
57 1 7 -0.75                  300                   42                    0
58 1 18 0                  300                   48                    0
59 1 2 0                  300                   54                    0
60 1 18 0                  300                   60                    0
61 1 7 -0.75                  300                   66                    0
62 1 8 -0.75                  300                   72                    0
63 1 6 0                  300                   78                    0
64 1 18 0                  300                   84                    0
65 1 5 0.75                  300                   90                    0
66 1 1 0                  300                   96                    0
67 1 18 0                  300                  102                    0
68 1 8 -0.75                  300                  108                    0
69 1 6 0                  300                  114                    0
70 1 6 0                  300                  120                    0
71 1 18 0                  300                  126                    0
72 1 18 0                  300                  132                    0
73 1 10 0                  300                  138                    0
74 1 6 0                  300                  144                    0
75 1 18 0                  300                  150                    0
76 1 6 0                  300                  156                    0
77 1 18 0                  300                  162                    0
78 1 6 0                  300                  168                    0
79 1 6 0                  300                  174                    0
80 1 18 0                  300                  180                    0
81 1 4 0                  300                  186                    0
82 1 18 0                  300                  192                    0
83 1 6 0                  300                  198                    0
84 1 6 0                  300                  204                    0
85 1 18 0                  300                  210                    0
86 1 6 0                  300                  216                    0
87 1 18 0                  300                  222                    0
88 1 6 0                  300                  228                    0
89 1 18 0                  300                  234                    0
90 1 15 0                  300                  240                    0
91 1 13 0                  300                  246                    0
92 1 18 0                  300                  252                    0
93 1 11 0                  300                  258                    0
ITEM: TIMESTEP
100000
ITEM: NUMBER OF ATOMS
93
ITEM: BOX BOUNDS pp pp pp
-3.0000000000000000e+02 3.0000000000000000e+02
-3.0000000000000000e+02 3.0000000000000000e+02
-3.0000000000000000e+02 3.0000000000000000e+02
ITEM: ATOMS id mol type q xu yu zu
1 1 1 0      180.66650896801     51.1493686780151     6.73423234216391
2 1 8 -0.75     180.026095603265     53.6399561133407      9.9067689621022
3 1 8 -0.75     181.885023196887     51.4922769619952     12.3913308207761
4 1 18 0      185.49920549701     50.5955152608865     13.5582641593087
5 1 12 0     184.311717341206     48.1216514680132     16.5363852083637
6 1 15 0     187.772766510002      46.874678727023     16.1794372666103
7 1 7 -0.75     188.957586002605         45.320489185     13.2717098171389
8 1 18 0     191.798501841113      44.274994359956     11.0838155170851
9 1 15 0     195.366325557826     44.7414936409278     9.28218439103708
10 1 10 0     195.331154010274     46.1541178943315     5.79563123570628
11 1 8 -0.75     196.745288311164     49.6104558616497     4.91167031579023
12 1 18 0     198.155043575048     49.1756792123302     1.20561880142558
13 1 18 0     198.478945023241     46.5133565476643    -1.40457590894921
14 1 11 0     197.102078904611     46.7572300034255    -5.08924303051256
15 1 15 0     193.777448670629     48.2573319579137    -3.87913463261617
16 1 12 0     190.695730653028     47.2389506579726    -6.02319437711763
17 1 8 -0.75     189.979774232082     49.0968042810413    -9.37108802996845
18 1 4 0     186.279337838272     50.2674174793442    -10.3579109449605
19 1 14 0     184.557418111423     53.6812619160196    -8.76191712781963
20 1 15 0      186.19661133315     52.9721735087935    -5.47960459488135
21 1 7 -0.75     183.475732086856     52.3989939281423    -2.66500808471665
22 1 11 0     179.889201212882     52.4823864177693    -3.40479726817354
23 1 13 0     177.952402554116     55.6798611094374    -3.01355630170185
24 1 3 0.75     175.258368523203     56.9651752962358    -1.03358467353872
25 1 11 0      173.33491827406     59.3639371504512     1.55249571262069
26 1 11 0     172.873571260215     63.0206991687276    0.869782542146576
27 1 18 0     174.553321787132     66.0592297682433     2.64828535463453
28 1 8 -0.75     177.993706893363     67.6917211307339     2.99296879723141
29 1 17 0     178.847021913027      70.287516222455      5.5548946162439
30 1 17 0     179.815486042325     69.8107577175168      9.3098621719366
31 1 10 0     180.912268805057     67.8810181576393     12.2430713394122
32 1 11 0     183.971974667506     65.6149866389936     12.6879101867186
33 1 15 0     185.570316854097     65.3018603005742     15.8370550612239
34 1 18 0     188.786211300111     64.7449499759218     17.5535030978485
35 1 11 0     190.537386010815     64.6580712086383     20.7965510806611
36 1 18 0     191.625550428281     66.7360823425378     23.6693209516791
37 1 15 0     193.308924077657     69.7531219509096     24.7901726329384
38 1 12 0     191.536412684722     72.9451148611373     23.8024908689317
39 1 6 0      191.51577989739     76.5999943528477     25.2424687739499
40 1 1 0     194.979653011591     78.5411512432724     25.2857258582809
41 1 7 -0.75      194.27052233255     82.3217788109546      24.907084256443
42 1 7 -0.75     191.950834672902     85.4400394031188      25.257905834964
43 1 11 0     193.227149308436     88.5808364912479     24.2743137136697
44 1 1 0     196.669030049592     89.1061056814264     23.5786593849924
45 1 11 0     200.458105967538     87.9778067542262     24.1725868967193
46 1 15 0     203.452235077524     89.6069809341189     25.2276022805603
47 1 18 0     206.133263838078     91.5270221707952     23.1628968924501
48 1 7 -0.75     207.804026569225      87.887356801555     23.1351822402584
49 1 7 -0.75     207.564433498912     83.9840945666142     22.6919290195075
50 1 20 0     210.805899858514     82.3614087131993      21.225579331501
51 1 8 -0.75     209.257296062456     78.9589618277012     21.9539844520755
52 1 12 0     205.817848012016     77.4971913606043     20.8984554821703
53 1 13 0     203.367716746935     79.2645201712918     18.4125613082707
54 1 14 0     199.944955029202     80.6715351384873     16.8993703322624
55 1 4 0     196.536746916499     81.0122585753274     15.0624211633368
56 1 8 -0.75     197.356328561872     80.4210220706493     11.6213720169386
57 1 7 -0.75     195.021185723292     83.3043033974385     9.91081376972282
58 1 18 0     198.393694517001     84.9641521307838     8.62274122108391
59 1 2 0      198.16339880738     82.9958980176384     5.42131330663347
60 1 18 0     200.534812623463     79.9686378728638     5.28324049298141
61 1 7 -0.75     203.400062639163     82.9881846757912     4.54589275553961
62 1 8 -0.75     203.338596922971     85.7530890548751     2.32883768030534
63 1 6 0     205.842190053049     87.9815945222848     1.21669121188463
64 1 18 0     206.299003169924     91.9696352487255     1.86599809579902
65 1 5 0.75     209.532570796367     93.3411770005978    0.562617245086196
66 1 1 0      212.58710973172      91.829598812878    -1.46969446050648
67 1 18 0      215.58983674551     90.7681261208465    -3.30616596476943
68 1 8 -0.75     217.695310919976      94.373472140932    -3.74721638578947
69 1 6 0     216.987773912294     97.2472091495493     -5.9701657219828
70 1 6 0     217.640671779084     94.7837604165784    -9.14512000555882
71 1 18 0     216.286215188496     93.4374974765614    -12.3154061646489
72 1 18 0     214.231530033705     95.4549321122605    -15.0150336484151
73 1 10 0     211.054767040323     96.0348919037806    -17.0955234269289
74 1 6 0     210.953233478364     99.6166091563901    -17.4423545102852
75 1 18 0     212.795416406796     102.608444328764    -16.2030451210449
76 1 6 0     216.504120550628     101.129645109336    -16.9482390506385
77 1 18 0     219.832463903232     101.974019303713    -15.9890556771686
78 1 6 0     222.799277766067     103.921116202723     -15.298271988959
79 1 6 0     221.314622502166     107.060270394117     -13.894727970962
80 1 18 0      222.36711156873     109.433883820538    -16.8398510192723
81 1 4 0     225.618998980399     109.909680816909    -18.8477911518668
82 1 18 0     226.599162121582     113.318216755796    -19.9819393322399
83 1 6 0     226.489445863023     117.010724144152    -20.8899799953098
84 1 6 0     229.478452604326     118.676152225455    -18.7945345595675
85 1 18 0     232.544190050427     118.064754211555    -19.8275624437416
86 1 6 0     232.910027176272     119.129355293574    -23.2105433616135
87 1 18 0     232.542543778226     118.494470525273    -27.2343003370572
88 1 6 0     235.363733969214     120.753782320812    -27.1104675213668
89 1 18 0     238.739137196572     120.104629759683    -28.5397816253155
90 1 15 0     238.972262919646     118.021158335183    -30.9489269945231
91 1 13 0     238.661339650995     114.467922729721    -32.3125368724884
92 1 18 0      236.92874641708     113.104338351164    -35.2976105853981
93 1 11 0     234.892396228436     113.271345979895    -38.5396936938453
ITEM: TIMESTEP
200000
ITEM: NUMBER OF ATOMS
93
ITEM: BOX BOUNDS pp pp pp
-3.0000000000000000e+02 3.0000000000000000e+02
-3.0000000000000000e+02 3.0000000000000000e+02
-3.0000000000000000e+02 3.0000000000000000e+02
ITEM: ATOMS id mol type q xu yu zu
1 1 1 0     187.768373455388      33.516975777618     38.4557465500184
2 1 8 -0.75     189.901341884227     35.9478232398654     36.2498094648739
3 1 8 -0.75     190.020604020728     36.3118596551092     32.5787721348884
4 1 18 0     190.563027476474     34.1980880142687     29.3196373094698
5 1 12 0     191.638984925936      34.431499028898     25.7547064673835
6 1 15 0      191.20998307392     30.8098546766152     24.0349202536951
7 1 7 -0.75     189.427071053948     27.7337017328337     24.5022997319533
8 1 18 0     189.873404133665     25.6138002525386     21.2364780558338
9 1 15 0     193.277079492292     25.4127799317626     19.5985077731226
10 1 10 0     196.436225009132     27.4487291998297     20.2941038330323
11 1 8 -0.75     199.521323678645     29.7349946306375     20.2727053382146
12 1 18 0     201.505895392866     29.5033286875139     17.2797195959515
13 1 18 0     203.350557522531     26.2522688107867     16.0154851178683
14 1 11 0     202.856756296134     22.5633702532388     15.0858480316748
15 1 15 0     203.596843871628     21.3403966087131      11.302932025188
16 1 12 0     203.747164889322     21.5302121975126     7.37317392623446
17 1 8 -0.75     205.279774267342     24.4523805663361     5.33650312690441
18 1 4 0     206.707654915538      26.987453575028     7.84142347938453
19 1 14 0     208.632730381223     30.3257210379956      8.7822493608712
20 1 15 0     209.197154997414     33.8515300429595     8.20426630935921
21 1 7 -0.75      210.96897128093     36.6794895220213     8.96977704926466
22 1 11 0     212.723600396888     36.9852797929508     5.31119626638552
23 1 13 0      211.32411408361     34.8480699180155     2.19817969319331
24 1 3 0.75     207.755292867221     35.8042588798446     3.07424290894939
25 1 11 0     204.686576410736     34.1602119246445     3.50943131568727
26 1 11 0     202.678954807293     31.4311925779408     2.00031990173441
27 1 18 0     202.592535412468      32.998868320936    -1.79386154027288
28 1 8 -0.75     205.014344288626     35.8475826125874    -1.99940955825492
29 1 17 0     203.925120533501     39.1817764121781    -1.43774935971229
30 1 17 0     200.732246009706     38.7650184534083    0.891004102744159
31 1 10 0     197.491413575403     40.7116012505746    0.980311220916916
32 1 11 0     194.560727008474      39.759992129316     3.41387172884596
33 1 15 0     193.197163971729     43.8579364756165     2.86297606005827
34 1 18 0     196.066235125064     45.9651161064403     1.46002470713887
35 1 11 0     193.982799650924     48.2884900849696    -1.29535117145778
36 1 18 0     193.918226901684     48.3825579341355    -5.22718757031578
37 1 15 0     191.726730485498     49.5826492772334    -8.17512178509879
38 1 12 0      190.61684524398      47.138758930233    -10.4397392557248
39 1 6 0      186.93660818345     48.2631605992321    -11.0157159828768
40 1 1 0     186.650267164892      52.008883112133    -9.65441710243538
41 1 7 -0.75     184.338908348452     54.4136748487582    -7.97520441011285
42 1 7 -0.75     181.021602055319     56.2461416731755    -7.94170224830669
43 1 11 0     180.811314495497     57.4905072284293    -11.4390354573798
44 1 1 0      181.21443315846     60.6491452386528    -13.4126942918622
45 1 11 0     184.371497195173     61.6095845668161    -11.3377549879498
46 1 15 0     183.766093430242     63.8908109406458    -8.19913423234558
47 1 18 0     180.040786627562     62.7041572942776    -7.36097810874055
48 1 7 -0.75     178.276204031445     66.1581757492159    -8.05092112708676
49 1 7 -0.75     179.627672555993     67.7296822661691    -11.5451039400311
50 1 20 0     182.551674202699     67.2387297736463    -13.6155294061596
51 1 8 -0.75     184.482516482621     65.9419869671346    -16.6046027406008
52 1 12 0     188.045196656111     64.6126978057126    -16.9807001606047
53 1 13 0      191.19904362221     63.8823007737878    -15.0478117728868
54 1 14 0     194.529311753037      64.144957640287    -13.1075916802394
55 1 4 0     195.910120107423     67.0330589809728    -11.3295279619196
56 1 8 -0.75     199.379307285102     68.4358489267197    -11.2033632244611
57 1 7 -0.75     199.442635799361     69.6052562271732    -7.74093118757604
58 1 18 0     202.767968967252     69.8518982314196    -6.33324865698594
59 1 2 0      204.59045107726      66.741073108263    -4.61282280171684
60 1 18 0     207.115019503023     64.1877122509919     -3.9393917171317
61 1 7 -0.75     204.733375174151     61.8353816099521    -6.04810918798985
62 1 8 -0.75     202.226593345717     62.6651627429154    -8.75191425632199
63 1 6 0     198.458481909979     61.5358326769991    -7.37289352493621
64 1 18 0     197.422670528502     59.2342212491146    -4.65719148386624
65 1 5 0.75     200.096758913983     58.8441012000154    -2.06388733313736
66 1 1 0     200.675889150497     60.8373645224793     1.47015580497189
67 1 18 0     203.512525722861     63.0810620920146     2.16087935751649
68 1 8 -0.75     205.266597316412     61.6219566508911     5.31826587809936
69 1 6 0     204.988113957044     58.0085014011668     5.13840561880091
70 1 6 0     204.788972313119     54.4992993787158     6.57247252990823
71 1 18 0     203.965714364288     56.6404369130053     10.0427658445415
72 1 18 0     205.932729751152     60.1295843090239     10.8093907269748
73 1 10 0     205.391665769264     63.0750709714476     12.7450912612551
74 1 6 0     208.520117354705     61.7547136972688     14.7649416255738
75 1 18 0     210.745586563768     63.9461582905951     12.8777630543877
76 1 6 0     214.365310181923     65.4466687595028     11.9443551358949
77 1 18 0     214.000206563132     66.9682730380594     8.36142129601395
78 1 6 0     210.742258821836     68.8887301166005      7.8619466230506
79 1 6 0     210.805704588772     70.0274362522487     11.6992892451356
80 1 18 0     211.214211870425     72.0688828429718     14.8387250282271
81 1 4 0     209.559533738698     75.2333769323013     16.3265855455808
82 1 18 0     211.177143627897     78.3514702220401     17.9379822507108
83 1 6 0     211.858674049192     75.9108758865269     21.1409107561751
84 1 6 0     215.438053593541      75.794587694711     20.7382638767604
85 1 18 0     216.653214099805     77.3731490357257     17.0073215767139
86 1 6 0     219.115770243462     74.6247472167828     17.4611009293802
87 1 18 0     223.015292488598     74.3550553505026     18.0301870237408
88 1 6 0     225.464097426397     72.1582806194924     19.3491151423975
89 1 18 0     226.219002767259     69.8614240999879       22.29639077035
90 1 15 0     227.529268383943     71.3672995600402     25.2728519688039
91 1 13 0     225.410391226891     74.5501914079347     26.3945392052784
92 1 18 0     222.576934386961      73.394738165208     28.6884497822686
93 1 11 0     219.911267620083     71.7538922487594     31.4492825978475
ITEM: TIMESTEP
300000
ITEM: NUMBER OF ATOMS
93
ITEM: BOX BOUNDS pp pp pp
-3.0000000000000000e+02 3.0000000000000000e+02
-3.0000000000000000e+02 3.0000000000000000e+02
-3.0000000000000000e+02 3.0000000000000000e+02
ITEM: ATOMS id mol type q xu yu zu
1 1 1 0     275.448856090263     74.8567955565482     15.5366497782697
2 1 8 -0.75     272.644344955783     72.7092895456572     13.7488177858462
3 1 8 -0.75     271.098169923109      69.636362549479     12.6890380074138
4 1 18 0     269.914391795463     67.5174200170176     15.4956724625257
5 1 12 0     272.154571665204     68.1739595703466     18.6813631872087
6 1 15 0     274.331117896061     65.3497981789761     18.1947554665024
7 1 7 -0.75     272.956730556986     62.9637282333901     21.1834591065435
8 1 18 0      274.11788459164     64.0965800037934     24.4604717786555
9 1 15 0     273.038110318852     64.6013207329218     28.2120303739289
10 1 10 0     269.935232934362      62.559083957157     27.4722061767541
11 1 8 -0.75     271.062981342739     58.8161095261106     28.0966599331993
12 1 18 0     274.190397869429     57.9551462561404     30.8566531939353
13 1 18 0     274.572837446827     54.1649912383823     29.9316181560007
14 1 11 0      277.70896733534     53.1950228104517     27.8863906444207
15 1 15 0     277.869328587188     49.6500771278453     27.3223413056267
16 1 12 0     275.568418513415      46.336291029902     26.2099193303372
17 1 8 -0.75      272.26957801574     45.9851975855589     24.8510343298027
18 1 4 0     269.728033941225     48.5331014529706     23.2301307246686
19 1 14 0     265.917261004109     47.8065513204991      23.590208465665
20 1 15 0     262.804087164382     49.6445675767101     22.7104238455223
21 1 7 -0.75     259.513110264989     47.7793365920363     23.1333111498244
22 1 11 0     255.833369895918     46.2907338473952     22.5132433290928
23 1 13 0     254.810771988433     43.1878366400055     24.2775274835755
24 1 3 0.75     255.279711164852     40.6120064715815     21.4985250048862
25 1 11 0     257.649509969067     41.8759279058962     18.4665904829127
26 1 11 0     257.363337949491     40.0176815652448     15.3063832757133
27 1 18 0     254.459740722914     38.9803953991619     13.2648169272196
28 1 8 -0.75     250.964488764894     38.9144344288801     15.2355638697884
29 1 17 0     248.748838406878     36.7308206267597     17.9136630789835
30 1 17 0     248.697857317695      33.677729716945     15.5452227866449
31 1 10 0      245.27045829479      33.985934638377     14.0365563587667
32 1 11 0     241.681007746109     32.4485914855011     14.0600193606888
33 1 15 0     240.921958739367     33.1990025890512     17.8612101759115
34 1 18 0     238.150626010362     35.7043972329182     18.7685809663607
35 1 11 0     236.916178931198     38.7308475606778     19.8544023289876
36 1 18 0     237.821679745499     41.7441028854224     18.2646824657265
37 1 15 0     237.207404754148       44.32085997758     15.3623789266093
38 1 12 0     237.314699313366     48.1456211048424     15.7438929164668
39 1 6 0     240.252721790681     50.4081874665334     14.8155409436812
40 1 1 0     238.764132761656     53.8193673412987      13.346366590851
41 1 7 -0.75     239.825409281506     54.5751500505286     9.58356235185448
42 1 7 -0.75     241.846279018594     53.8642984556924     6.47264136357691
43 1 11 0     244.914968269331      52.093343052218     4.88828288594525
44 1 1 0     243.062548830726     50.4568441091799     1.85936587957716
45 1 11 0     239.481822163724     50.7549096333682    0.550373612999905
46 1 15 0     237.623142718854     53.8176093707443   -0.641802239672399
47 1 18 0     233.819035643711     52.9059062974783   -0.694691928478795
48 1 7 -0.75     233.759507992705     56.4113610859041    -2.35846120149853
49 1 7 -0.75     231.414704435232     59.2194640573181    -3.89176774479929
50 1 20 0     228.554801129926     59.8834768515229   -0.920462746718092
51 1 8 -0.75     229.692813878317     58.2406382840809     2.44123719252808
52 1 12 0      228.30320277056     60.6192825639633     5.57609114257539
53 1 13 0     230.037479122455     63.8457538900702     4.88471281251393
54 1 14 0     230.683541135971     67.5009267609664     4.30365008962091
55 1 4 0     232.438935691627     70.0055526361703     2.22262643265422
56 1 8 -0.75     232.750806148711     73.1844851509291     0.11342041987358
57 1 7 -0.75     229.452341521088      75.352522647204     1.95610859160247
58 1 18 0     226.697746881983     72.9416232475356      1.0900266216919
59 1 2 0     225.652200415822     70.8714707472004     4.02327552774266
60 1 18 0     222.369447707796     71.2990629268093     5.40441009703942
61 1 7 -0.75     220.705354714356      68.425253353538     6.94786008878887
62 1 8 -0.75     219.533043760585     65.3043858100696     9.05221021483089
63 1 6 0     219.169582725538     62.7347458606104     6.23752469483843
64 1 18 0     221.941228427783     60.8802365668275     4.17743982146304
65 1 5 0.75     222.689885873222     63.3182427231018     1.12116705820427
66 1 1 0     219.054030678525     62.6687417666693   -0.717679892204833
67 1 18 0     217.288568332961     63.7379063361874    -4.00931951674945
68 1 8 -0.75     214.610439422279     63.2538080146233    -6.10650729731571
69 1 6 0      214.07638109806     59.6190024742155    -6.71932880888628
70 1 6 0     211.470668324838     59.8263177244559    -3.76042941127065
71 1 18 0     208.680214737398     58.4574598555394    -5.87314287975123
72 1 18 0     205.437959557714     58.6064730496724    -3.48104286373523
73 1 10 0     204.621182353581      59.756557593107   0.0876660809868925
74 1 6 0     207.368137363416     62.6036345940821    0.412140156676107
75 1 18 0     205.633419623423      64.604316727146     3.03517759915188
76 1 6 0      203.70389841816     67.4789759042805     3.84738992381561
77 1 18 0     201.605635019751      70.020000419297     1.89091843171775
78 1 6 0      198.92480840099     67.6557797003783    0.915745104143783
79 1 6 0     201.666822646326     65.6765076183272   -0.714702006344891
80 1 18 0     199.345570564785     64.0031365159102    -2.64247267089276
81 1 4 0      198.10217649703     62.0396218680124    -5.71617585512335
82 1 18 0      199.83508903177     58.9173401209824    -7.19942711800691
83 1 6 0     197.113167042584     59.1808919850234    -9.89716484883272
84 1 6 0     195.212923851823     56.1885322949789    -8.97733620791116
85 1 18 0     193.355366976582     53.6345641171534    -6.47785490432125
86 1 6 0     195.569921678332     50.9490448835409    -7.99743749035605
87 1 18 0     193.734961592694     47.8676913882969     -8.8969988128024
88 1 6 0     195.543395919233     44.6562440814856     -7.7273221600177
89 1 18 0     195.942795321421     43.6286459652141    -3.95504677409093
90 1 15 0     197.151024539636     40.0582819324055    -5.19576498734062
91 1 13 0     198.770038094332     36.7821193806824    -4.19077393165851
92 1 18 0     200.436510778877     37.1335394299519    -0.46644868597134
93 1 11 0      203.22822116635     34.3404159717899     1.37525936126613
ITEM: TIMESTEP
400000
ITEM: NUMBER OF ATOMS
93
ITEM: BOX BOUNDS pp pp pp
-3.0000000000000000e+02 3.0000000000000000e+02
-3.0000000000000000e+02 3.0000000000000000e+02
-3.0000000000000000e+02 3.0000000000000000e+02
ITEM: ATOMS id mol type q xu yu zu
1 1 1 0      264.36466467857     75.6563382425448     22.0689949594734
2 1 8 -0.75     261.271798708732     73.0645279935994     22.0620566992048
3 1 8 -0.75     260.580458318059     69.4108781154391     20.1164603434905
4 1 18 0       257.5404769502     68.2161304088508     18.8719599086604
5 1 12 0     254.331712884352     69.9540921028859      20.139470748928
6 1 15 0     254.773821181729     71.8694229610755     23.3876700709507
7 1 7 -0.75     253.234198053405     70.8827916504034      26.892376729852
8 1 18 0     252.027215234858     66.9573265894487     28.0056811344069
9 1 15 0     253.486779885563     64.8215425649254     31.1494144253747
10 1 10 0     251.822049617899      62.084069880726     33.3480996765875
11 1 8 -0.75     248.120541801284     62.6424670895637     32.1686529741595
12 1 18 0     247.128180359883     60.4955946700999     34.4937775021223
13 1 18 0     243.975631369755     58.6083820270109     35.1664597505061
14 1 11 0     244.441856884792     55.2423571383708     33.2408352444124
15 1 15 0     246.809321704397     55.9276039806191     30.4273253111756
16 1 12 0     249.413489147469     56.1565709627433     27.3400437767622
17 1 8 -0.75     248.161510851219     52.5544384921194      26.880932581206
18 1 4 0      246.75981488821     50.4886111007073     24.0486862804876
19 1 14 0     247.625563522557     50.3677217871798     20.1296132223382
20 1 15 0     245.358048342123     53.1904600877056     18.8094353061509