LAMMPS data file for IDP

50 atoms
49 bonds

40 atom types
1 bond types

-300.00000   300.00000  xlo xhi
-300.00000   300.00000  ylo yhi
-300.00000   300.00000  zlo zhi

Masses

   1 131.199997
   2 57.049999
   3 128.199997
   4 101.099998
   5 156.199997
   6 71.080002
   7 115.099998
   8 129.100006
   9 163.199997
   10 99.070000
   11 113.199997
   12 128.100006
   13 186.199997
   14 147.199997
   15 87.080002
   16 137.100006
   17 114.099998
   18 97.120003
   19 103.099998
   20 113.199997
   21 131.199997
   22 57.049999
   23 128.199997
   24 101.099998
   25 156.199997
   26 71.080002
   27 115.099998
   28 129.100006
   29 163.199997
   30 99.070000
   31 113.199997
   32 128.100006
   33 186.199997
   34 147.199997
   35 87.080002
   36 137.100006
   37 114.099998
   38 97.120003
   39 103.099998
   40 113.199997

Atoms

1 1 18  0.000000 6.000000  0.000000  0.000000
2 1 15  -1.000000 12.000000  0.000000  0.000000
3 1 5  -1.000000 18.000000  0.000000  0.000000
4 1 6  0.000000 24.000000  0.000000  0.000000
5 1 3  0.000000 30.000000  0.000000  0.000000
6 1 3  0.000000 36.000000  0.000000  0.000000
7 1 5  -1.000000 42.000000  0.000000  0.000000
8 1 5  0.000000 48.000000  0.000000  0.000000
9 1 3  0.000000 54.000000  0.000000  0.000000
10 1 18  0.000000 60.000000  0.000000  0.000000
11 1 5  -1.000000 66.000000  0.000000  0.000000
12 1 5  0.000000 72.000000  0.000000  0.000000
13 1 18  0.000000 78.000000  0.000000  0.000000
14 1 18  0.000000 84.000000  0.000000  0.000000
15 1 5  0.000000 90.000000  0.000000  0.000000
16 1 18  0.000000 96.000000  0.000000  0.000000
17 1 18  -1.000000 102.000000  0.000000  0.000000
18 1 18  0.000000 108.000000  0.000000  0.000000
19 1 5  0.000000 114.000000  0.000000  0.000000
20 1 5  0.000000 120.000000  0.000000  0.000000
21 1 18  -1.000000 126.000000  0.000000  0.000000
22 1 18  0.000000 132.000000  0.000000  0.000000
23 1 18  0.000000 138.000000  0.000000  0.000000
24 1 5  1.000000 144.000000  0.000000  0.000000
25 1 5  0.000000 150.000000  0.000000  0.000000
26 1 18  0.000000 156.000000  0.000000  0.000000
27 1 18  0.000000 162.000000  0.000000  0.000000
28 1 5  -1.000000 168.000000  0.000000  0.000000
29 1 18  0.000000 174.000000  0.000000  0.000000
30 1 18  0.000000 180.000000  0.000000  0.000000
31 1 5  0.000000 186.000000  0.000000  0.000000
32 1 18  0.000000 192.000000  0.000000  0.000000
33 1 5  0.000000 198.000000  0.000000  0.000000
34 1 5  0.000000 204.000000  0.000000  0.000000
35 1 18  0.000000 210.000000  0.000000  0.000000
36 1 18  0.000000 216.000000  0.000000  0.000000
37 1 18  0.000000 222.000000  0.000000  0.000000
38 1 5  0.000000 228.000000  0.000000  0.000000
39 1 5  0.000000 234.000000  0.000000  0.000000
40 1 18  0.000000 240.000000  0.000000  0.000000
41 1 3  -1.000000 246.000000  0.000000  0.000000
42 1 5  -1.000000 252.000000  0.000000  0.000000
43 1 18  0.000000 258.000000  0.000000  0.000000
44 1 5  0.000000 264.000000  0.000000  0.000000
45 1 5  0.000000 270.000000  0.000000  0.000000
46 1 5  0.000000 276.000000  0.000000  0.000000
47 1 3  0.000000 282.000000  0.000000  0.000000
48 1 18  -1.000000 288.000000  0.000000  0.000000
49 1 3  -1.000000 294.000000  0.000000  0.000000
50 1 5  0.000000 300.000000  0.000000  0.000000


Bonds

1 1 1 2
2 1 2 3
3 1 3 4
4 1 4 5
5 1 5 6
6 1 6 7
7 1 7 8
8 1 8 9
9 1 9 10
10 1 10 11
11 1 11 12
12 1 12 13
13 1 13 14
14 1 14 15
15 1 15 16
16 1 16 17
17 1 17 18
18 1 18 19
19 1 19 20
20 1 20 21
21 1 21 22
22 1 22 23
23 1 23 24
24 1 24 25
25 1 25 26
26 1 26 27
27 1 27 28
28 1 28 29
29 1 29 30
30 1 30 31
31 1 31 32
32 1 32 33
33 1 33 34
34 1 34 35
35 1 35 36
36 1 36 37
37 1 37 38
38 1 38 39
39 1 39 40
40 1 40 41
41 1 41 42
42 1 42 43
43 1 43 44
44 1 44 45
45 1 45 46
46 1 46 47
47 1 47 48
48 1 48 49
49 1 49 50
