LAMMPS (10 Mar 2021)
Reading data file ...
  orthogonal box = (-300.00000 -300.00000 -300.00000) to (300.00000 300.00000 300.00000)
  1 by 1 by 1 MPI processor grid
  reading atoms ...
  176 atoms
  scanning bonds ...
  1 = max bonds/atom
  reading bonds ...
  175 bonds
Finding 1-2 1-3 1-4 neighbors ...
  special bond factors lj:    0        0        0       
  special bond factors coul:  0        0        0       
     2 = max # of 1-2 neighbors
     2 = max # of 1-3 neighbors
     4 = max # of 1-4 neighbors
     6 = max # of special neighbors
  special bonds CPU = 0.000 seconds
  read_data CPU = 0.002 seconds
Setting atom values ...
  3 settings made for charge
Setting atom values ...
  0 settings made for charge
Setting atom values ...
  0 settings made for charge
Setting atom values ...
  0 settings made for charge
Setting atom values ...
  0 settings made for charge
Setting atom values ...
  0 settings made for charge
Setting atom values ...
  0 settings made for charge
Setting atom values ...
  0 settings made for charge
Setting atom values ...
  0 settings made for charge
Setting atom values ...
  0 settings made for charge
Finding 1-2 1-3 1-4 neighbors ...
  special bond factors lj:    0        1        1       
  special bond factors coul:  0        1        1       
     2 = max # of 1-2 neighbors
     6 = max # of special neighbors
  special bonds CPU = 0.000 seconds
New timer settings: style=normal  mode=nosync  timeout=11:50:00

CITE-CITE-CITE-CITE-CITE-CITE-CITE-CITE-CITE-CITE-CITE-CITE-CITE

Your simulation uses code contributions which should be cited:

- neighbor multi command:

@Article{Intveld08,
 author =  {P.{\,}J.~in{\,}'t~Veld and S.{\,}J.~Plimpton and G.{\,}S.~Grest},
 title =   {Accurate and Efficient Methods for Modeling Colloidal
            Mixtures in an Explicit Solvent using Molecular Dynamics},
 journal = {Comp.~Phys.~Comm.},
 year =    2008,
 volume =  179,
 pages =   {320--329}
}

CITE-CITE-CITE-CITE-CITE-CITE-CITE-CITE-CITE-CITE-CITE-CITE-CITE

Neighbor list info ...
  update every 10 steps, delay 0 steps, check yes
  max neighbors/atom: 2000, page size: 100000
  master list distance cutoff = 38.5
  ghost atom cutoff = 38.5
  binsize = 8.7926654, bins = 69 69 69
  2 neighbor lists, perpetual/occasional/extra = 2 0 0
  (1) pair wf/cut, perpetual
      attributes: half, newton on
      pair build: half/multi/newton
      stencil: half/multi/3d/newton
      bin: standard
  (2) pair coul/debye, perpetual, skip from (1)
      attributes: half, newton on
      pair build: skip
      stencil: none
      bin: none
Per MPI rank memory allocation (min/avg/max) = 10.87 | 10.87 | 10.87 Mbytes
Step PotEng Press KinEng Temp Lx Ly Lz Pzz S/CPU Density 
       0    8057.1046   -4.6721439            0            0          600          600          600   -6.0870513            0 0.00013373488 
    1000    62.842184 -0.0049402579    708.08961    1357.4251          600          600          600 0.0096236051    16680.602 0.00013373488 
    2000    39.496671 -0.014499411     162.2151    310.97032          600          600          600 -0.025987476    23660.674 0.00013373488 
    3000    34.771614 -0.030646019    164.00578    314.40309          600          600          600 -0.036333417    24525.512 0.00013373488 
    4000    38.117828 -0.050232181    142.55097     273.2737          600          600          600 -0.032797296    24369.478 0.00013373488 
    5000    35.200344  0.010739847    170.43401    326.72615          600          600          600 -0.012315616    24294.244 0.00013373488 
    6000     31.47948  0.017543483    159.80601    306.35203          600          600          600  0.037589431    23502.241 0.00013373488 
    7000    42.572122 0.0010583479    145.73107    279.37003          600          600          600 -0.0012164033    23814.089 0.00013373488 
    8000    34.887076  -0.03843625    164.05805    314.50329          600          600          600 -0.037672594    23957.868 0.00013373488 
    9000    31.387647 0.0096933585    158.18439    303.24335          600          600          600   0.04882701    24406.915 0.00013373488 
   10000    33.286089 -0.014468485     130.7332    250.61874          600          600          600 -0.027048977    23453.747 0.00013373488 
   11000    27.005399 -0.0027784485    170.11786    326.12009          600          600          600 -0.022577246    22811.247 0.00013373488 
   12000    31.706385 -0.014473625    152.41558    292.18439          600          600          600  -0.03158861    23029.303 0.00013373488 
   13000    48.384226 -0.0013137424    174.07046    333.69733          600          600          600 -0.034116676    22700.504 0.00013373488 
   14000    42.228435  0.013761854    171.45971    328.69246          600          600          600 -0.023700311    22742.723 0.00013373488 
   15000    28.160876  0.011403986     148.9174    285.47829          600          600          600  0.039935861    22417.565 0.00013373488 
   16000     33.73708 -0.016199306     165.0414     316.3884          600          600          600 -0.017483782    22078.422 0.00013373488 
   17000    35.445847 -0.017550867    163.26198     312.9772          600          600          600  -0.03883128    22798.724 0.00013373488 
   18000    40.074127 -0.0074457462    171.14938    328.09754          600          600          600 -0.014884787    23541.155 0.00013373488 
   19000    53.163854 -0.0081410242    155.89998    298.86407          600          600          600 -0.013976214    22964.116 0.00013373488 
   20000    43.961943 0.00043528014    159.01624    304.83802          600          600          600 -0.016194965    22312.976 0.00013373488 
   21000    34.011132 0.0053462389     154.5237    296.22571          600          600          600  0.012959123    22696.327 0.00013373488 
   22000    39.417498 0.0088243691    167.05975    320.25762          600          600          600 -0.026272091    22909.554 0.00013373488 
   23000     33.62405 -0.0019256457    181.36908    347.68895          600          600          600  -0.03578556    22543.355 0.00013373488 
   24000    36.857053 0.00086471931    165.55284    317.36884          600          600          600 -0.0033472809    22367.832 0.00013373488 
   25000    50.795373 -0.013687786    161.94129     310.4454          600          600          600 -0.043144616    22827.387 0.00013373488 
   26000    37.917344 0.0055239441    162.43758    311.39681          600          600          600 0.0038347234    22294.593 0.00013373488 
   27000    29.828256   0.02828012    171.17419     328.1451          600          600          600  0.026666519    22687.488 0.00013373488 
   28000    39.456501 -0.017368346    158.73232    304.29374          600          600          600 -0.0028251903    22508.393 0.00013373488 
   29000    37.726773  0.023619024    156.57814    300.16412          600          600          600  0.028281912    22015.264 0.00013373488 
   30000    38.746885 -0.011812637    167.38438    320.87995          600          600          600 -0.036510298    21372.576 0.00013373488 
   31000     46.97843 -0.0026566881     155.0471    297.22908          600          600          600 -0.0018002013    21627.705 0.00013373488 
   32000    41.782141  0.012680852    194.64366    373.13665          600          600          600 -0.023242794    20696.158 0.00013373488 
   33000    37.658367 -0.015622866     159.0214    304.84791          600          600          600 -0.011614853    21998.406 0.00013373488 
   34000    42.791774 -0.0046463467     139.1045    266.66673          600          600          600 -0.0076146133    22926.835 0.00013373488 
   35000    37.329768 -0.0016818482    148.81271    285.27761          600          600          600 -0.037658668    22609.097 0.00013373488 
   36000    34.515338 -0.016928428    162.02102    310.59826          600          600          600 -0.033494116    22168.509 0.00013373488 
   37000    28.077272   0.01151366      143.558    275.20419          600          600          600 -0.0073202672    21337.892 0.00013373488 
   38000    50.147414 -0.012365534    154.86413    296.87833          600          600          600 -0.020272485    21649.697 0.00013373488 
   39000    28.935777  0.018292231    156.65712    300.31553          600          600          600  0.029628803    21720.216 0.00013373488 
   40000    29.866871 0.0034546461    160.30734    307.31309          600          600          600  0.024505199    22480.043 0.00013373488 
   41000    35.466086 -0.041970334    144.00794    276.06674          600          600          600 -0.032665549    22280.144 0.00013373488 
   42000    40.979858 0.0079899264    145.78013    279.46407          600          600          600 -0.0014304015    21267.564 0.00013373488 
   43000    35.149725 -0.023654762    156.61376    300.23241          600          600          600 -0.0057368195    22378.334 0.00013373488 
   44000    32.159283 -0.0010972505    172.97462    331.59658          600          600          600 -0.022818407    22159.139 0.00013373488 
   45000    42.659654 -0.00018395757    141.54204    271.33955          600          600          600 -0.0052875461    22072.148 0.00013373488 
   46000     43.87194 -0.041653472    147.48613    282.73452          600          600          600 -0.031320745    22346.857 0.00013373488 
   47000    37.648565 -0.026709609    168.89128    323.76872          600          600          600 -0.035739785    21934.671 0.00013373488 
   48000    33.341279 -0.013204958    152.64072    292.61599          600          600          600 -0.024241424    21113.508 0.00013373488 
   49000    29.903302  0.025709258    171.28421    328.35601          600          600          600   0.04438831    20870.714 0.00013373488 
   50000    35.936587 -0.025893881    143.88441    275.82993          600          600          600 -0.033383578    21249.463 0.00013373488 
   51000    37.604335 -0.027598407     133.1123    255.17954          600          600          600 -0.017861691    21330.187 0.00013373488 
   52000    35.675499 0.0032077431     156.8414    300.66879          600          600          600 0.0098565661    20802.087 0.00013373488 
   53000    26.327515  0.023338002    148.65722    284.97952          600          600          600  0.043384771    21230.532 0.00013373488 
   54000    38.714448 -0.028819144    148.95411    285.54866          600          600          600 -0.018355455    21297.478 0.00013373488 
   55000    31.768136  0.036770264    161.39072    309.38996          600          600          600  0.042896176    20551.549 0.00013373488 
   56000    39.293863 -0.006555099    155.33276    297.77669          600          600          600 -0.00099228651    20811.273 0.00013373488 
   57000    37.822759 -0.0020877419    166.68764    319.54428          600          600          600 -0.0056447059    21668.487 0.00013373488 
   58000    32.084571 -0.017599313     154.7946    296.74503          600          600          600 0.0014771397    21381.183 0.00013373488 
   59000     32.81803 -0.0046364978    155.26229     297.6416          600          600          600 -0.0068137101     21034.94 0.00013373488 
   60000    41.530782 -0.0041776048    149.66879    286.91873          600          600          600 -0.0053024919    21013.652 0.00013373488 
   61000     43.93681 0.0022845066    155.29109    297.69682          600          600          600 0.0038819579    21063.356 0.00013373488 
   62000    35.370586 0.0017159177    166.16414    318.54072          600          600          600  0.018614034    20375.734 0.00013373488 
   63000    44.329642 0.0045756563    183.10085     351.0088          600          600          600 -0.0080733502    20674.836 0.00013373488 
   64000    36.730882 -0.038125165     148.9426    285.52661          600          600          600 -0.032596159    22312.383 0.00013373488 
   65000    34.665776 0.0016773853    145.37213    278.68192          600          600          600 0.00093404981    21597.858 0.00013373488 
   66000    29.362017 -0.00040714491    160.10461    306.92445          600          600          600 -0.0092015228    21059.655 0.00013373488 
   67000    39.737493 -0.011312754    160.91405    308.47616          600          600          600 -0.014732969    21951.547 0.00013373488 
   68000    29.291397 -0.023364723    167.28646    320.69224          600          600          600 -0.027600233    21570.312 0.00013373488 
   69000    43.758542 0.0086528518    156.08242    299.21382          600          600          600  0.029079291    21591.743 0.00013373488 
   70000    32.190274 -0.0037666714    162.16512     310.8745          600          600          600  0.011047477    21846.926 0.00013373488 
   71000    38.865452  0.012048493    175.09685    335.66493          600          600          600  0.031340918    20241.315 0.00013373488 
   72000    46.100346 -0.010359867    165.00149    316.31189          600          600          600 -0.025188424    19656.777 0.00013373488 
   73000     32.20113 -0.0064801411     172.2011    330.11371          600          600          600 -0.019898521    19218.944 0.00013373488 
   74000    29.785738  0.013569975    134.16281    257.19339          600          600          600 -0.014702641    18892.155 0.00013373488 
   75000    26.791275  0.020839562     149.7905    287.15205          600          600          600  0.010465938    19634.049 0.00013373488 
   76000    28.352024 -0.011594798    148.86985    285.38715          600          600          600 -0.0053433047     20252.75 0.00013373488 
   77000    43.488453  0.023018268    160.50527    307.69253          600          600          600  0.011434236        19935 0.00013373488 
   78000    33.861928 -0.0037043489    154.56158    296.29832          600          600          600 -0.033059983    20403.586 0.00013373488 
   79000    35.740948 -0.015121415    170.10751    326.10025          600          600          600 -0.028430633    19455.273 0.00013373488 
   80000    31.820366  0.043904218    166.11201    318.44079          600          600          600  0.026604175    19234.015 0.00013373488 
   81000    26.895279 -0.015454191    154.94119    297.02604          600          600          600 -0.012765397    20072.282 0.00013373488 
   82000    39.423621 -0.0041888776    146.02075    279.92534          600          600          600 -0.007421603    19278.661 0.00013373488 
   83000    35.862183 -0.018989384    160.78515    308.22907          600          600          600 -0.042201287    19088.271 0.00013373488 
   84000    26.004691  0.025520829    158.59108    304.02297          600          600          600  0.030494828    18806.936 0.00013373488 
   85000    32.854424  0.013896043    148.98367    285.60534          600          600          600 -0.0057227136    19976.015 0.00013373488 
   86000    23.850968  0.022427651    138.72924    265.94734          600          600          600  0.010578258    19730.844 0.00013373488 
   87000    32.957631 -0.016312737    151.39585    290.22954          600          600          600 -0.013946961    20008.797 0.00013373488 
   88000    23.929268 0.00082755063    149.02125    285.67737          600          600          600 -0.012077785    20598.583 0.00013373488 
   89000    34.527761 -0.0035777743    162.72036    311.93891          600          600          600 -0.028592622    20164.148 0.00013373488 
   90000    30.025861 -0.0046608844    148.58605    284.84309          600          600          600 -0.0032796691    19982.487 0.00013373488 
   91000    31.888971 0.0062203899    159.41764    305.60751          600          600          600 -0.0018705005    20143.424 0.00013373488 
   92000    29.215723 0.0045193299    145.87746    279.65065          600          600          600 -0.018501627    19843.609 0.00013373488 
   93000    40.915231 -0.0069888835    156.21917    299.47597          600          600          600 -0.0072905838    20272.033 0.00013373488 
   94000    39.822161  0.011502411    173.39778    332.40779          600          600          600  0.021433461    20630.498 0.00013373488 
   95000    37.230486 -0.0020555595    157.83226    302.56831          600          600          600 -0.018391755    20290.078 0.00013373488 
   96000    39.089466  0.022369102    153.95516    295.13581          600          600          600  0.036135462    21196.414 0.00013373488 
   97000    36.167354  0.023077623    169.15066    324.26596          600          600          600 0.0047397411    19858.548 0.00013373488 
   98000    30.235384 -0.010954833    149.52691    286.64675          600          600          600 -0.012245267    19791.455 0.00013373488 
   99000    24.797508 -0.014576917    158.82801    304.47718          600          600          600 -0.00098003388    19697.394 0.00013373488 
  100000    46.311364  -0.04023752    130.86889    250.87886          600          600          600 -0.056917256    19890.567 0.00013373488 
  101000    28.010934 -0.019989489    162.97622    312.42939          600          600          600 -0.033612412    21196.842 0.00013373488 
  102000    31.690621 -0.00010740503    151.76895    290.94479          600          600          600 -0.030408933    19561.434 0.00013373488 
  103000    32.627484  0.012357432    141.10734    270.50621          600          600          600 0.0056134027    19739.016 0.00013373488 
  104000    39.642154 -0.012018519    143.60185    275.28826          600          600          600 -0.035046062    20569.792 0.00013373488 
  105000     34.35767  0.011647704    163.53762    313.50562          600          600          600  0.025071119    20065.848 0.00013373488 
  106000    36.625834 0.0070139828    153.52832    294.31754          600          600          600 0.0063609524    19148.226 0.00013373488 
  107000    27.104473 -0.0087214217    157.45628    301.84753          600          600          600 -0.028813568    18707.034 0.00013373488 
  108000    27.350707 -0.010597003    161.39303    309.39438          600          600          600  0.002789054    19391.501 0.00013373488 
  109000    35.613649  0.018686978    154.76933    296.69658          600          600          600  0.032711756    19309.814 0.00013373488 
  110000    37.465521 0.0050835005    150.30954    288.14706          600          600          600 -0.019961769    19340.533 0.00013373488 
  111000    29.255611  0.014341041     154.7953    296.74638          600          600          600 0.0044650819    19332.599 0.00013373488 
  112000    20.074561  0.022575191      146.175    280.22104          600          600          600  0.040296623    19140.624 0.00013373488 
  113000    31.101115 0.0025304269    151.20897     289.8713          600          600          600 0.00054033911    18028.696 0.00013373488 
  114000    33.889297 -0.012259454    146.13926    280.15254          600          600          600 -0.016732824    18260.876 0.00013373488 
  115000    25.911556 0.0058838539    157.75607    302.42225          600          600          600 -0.0048475074    17992.424 0.00013373488 
  116000    29.514048  0.027249464    164.86606    316.05227          600          600          600  0.011979932    17267.261 0.00013373488 
  117000    31.423777 0.0076672007    163.29092    313.03268          600          600          600  0.012035612    15970.331 0.00013373488 
  118000    43.970334 -0.0045928792    148.31442    284.32236          600          600          600   0.00535172    17991.112 0.00013373488 
  119000     40.21054 0.0091392501     156.9609    300.89788          600          600          600  0.024007588    18165.653 0.00013373488 
  120000    30.741171   0.02672936    169.83842     325.5844          600          600          600  0.016029379    17851.445 0.00013373488 
  121000    19.871346  0.034762938    162.26111    311.05852          600          600          600  0.026710262    18258.491 0.00013373488 
  122000    25.305502  0.019995318    157.08339     301.1327          600          600          600  0.024793195    18507.195 0.00013373488 
  123000    25.680353 0.0097823903    152.27779    291.92024          600          600          600 -0.0038490638     19013.94 0.00013373488 
  124000    28.562998 0.0056867017    177.69907    340.65347          600          600          600 -0.0021704172    19318.797 0.00013373488 
  125000    35.724778  0.018199545    159.40922    305.59138          600          600          600  0.053183536    19142.458 0.00013373488 
  126000    37.153632 -0.025827751    159.41465    305.60177          600          600          600 -0.045249953    20552.455 0.00013373488 
  127000    34.045858  0.018565808    161.37522    309.36024          600          600          600   0.03026492    20883.288 0.00013373488 
  128000    37.837328 -0.024925627    164.04276    314.47399          600          600          600 -0.025312824    20683.808 0.00013373488 
  129000    36.906814  -0.03423494    150.54797    288.60413          600          600          600 -0.011996813    19490.532 0.00013373488 
  130000    29.870035 -0.0034127375    141.62155    271.49197          600          600          600 -0.0070650931     19539.29 0.00013373488 
  131000    37.269129 -0.027903374    170.58462    327.01489          600          600          600 -0.046780959    18901.094 0.00013373488 
  132000    26.813628 -0.0010075079    158.13217    303.14323          600          600          600 -0.010994398    18753.287 0.00013373488 
  133000    19.124297 -0.0010911194    169.18318    324.32828          600          600          600  0.010486919    17290.537 0.00013373488 
  134000    26.860405  0.024564616    163.77101    313.95302          600          600          600  0.029750774    17478.888 0.00013373488 
  135000    33.027781 -0.024836715    132.15955    253.35308          600          600          600 -0.060171928    17521.091 0.00013373488 
  136000    26.708361 -0.0026571212    155.77086    298.61654          600          600          600 -0.0082881885    17968.145 0.00013373488 
  137000    17.862743 0.0077821492    142.66839     273.4988          600          600          600 0.0018826415    17932.423 0.00013373488 
  138000    21.869398   0.01919141    166.09877    318.41541          600          600          600  0.017796455    17413.072 0.00013373488 
  139000    32.962881 0.0022829081    151.75815    290.92409          600          600          600 -0.0019405759    17158.267 0.00013373488 
  140000    31.791315 0.0028116736    151.30121    290.04812          600          600          600 -0.011473505    17522.995 0.00013373488 
  141000    32.469198 -0.012356734    157.54934    302.02594          600          600          600 -0.0051552064    18258.491 0.00013373488 
  142000     27.80586 -0.0083980457    166.22749    318.66215          600          600          600 0.0036927071    19133.638 0.00013373488 
  143000    31.406807   0.01815212    151.14162    289.74219          600          600          600  0.047460289    19165.112 0.00013373488 
  144000    43.805673 -0.039413735    149.60829    286.80275          600          600          600 -0.036407574    19150.149 0.00013373488 
  145000    33.480252 0.0079011953    158.64722     304.1306          600          600          600 -0.014780956    18915.414 0.00013373488 
  146000    34.117534 -0.024777422    162.89851    312.28042          600          600          600 -0.0092012116     18955.85 0.00013373488 
  147000    33.749966 0.0033520395    144.84059    277.66295          600          600          600  0.013685978    18104.805 0.00013373488 
  148000    23.280647  0.026816382    149.55779    286.70593          600          600          600  0.028454876    16981.675 0.00013373488 
  149000    33.896383  0.037100126    160.53361    307.74686          600          600          600  0.034531017     16311.11 0.00013373488 
  150000    26.980884  0.010845912      150.457    288.42975          600          600          600  0.026633907    16550.801 0.00013373488 
  151000    29.854724 -0.028848049    163.28456     313.0205          600          600          600 -0.024109522    16944.287 0.00013373488 
  152000    33.223282 -0.0077636367    173.17015     331.9714          600          600          600 -0.024622632     17852.66 0.00013373488 
  153000     26.09032 -0.019102848    162.97716    312.43121          600          600          600 -0.011020969    17926.904 0.00013373488 
  154000    37.978764 -0.014537176     160.7247    308.11319          600          600          600 -0.0054324156      18144.2 0.00013373488 
  155000    38.136908 0.0037149493    164.48917    315.32975          600          600          600   0.02526511    17522.702 0.00013373488 
  156000    36.614332 -0.013229587    154.86459    296.87921          600          600          600 -0.0098984648    18393.489 0.00013373488 
  157000    27.801229 -0.0056963603    169.14402    324.25321          600          600          600 -0.029350095    19303.504 0.00013373488 
  158000    22.147175 -0.0022436849    150.83581    289.15593          600          600          600 -0.0066055837    18851.906 0.00013373488 
  159000    41.846038 -0.0089895502    163.17323    312.80707          600          600          600 -0.021177353    18203.022 0.00013373488 
  160000    27.240873  0.011312833    140.83867    269.99118          600          600          600  0.035880439     17470.88 0.00013373488 
  161000    36.245685 -0.018715357    166.74684    319.65776          600          600          600 -0.012266804    18083.573 0.00013373488 
  162000    24.837929  0.016743612    152.00302     291.3935          600          600          600 -0.0077715045    17356.579 0.00013373488 
  163000    35.175688  0.026332815    147.93631    283.59753          600          600          600  0.017753701    17607.812 0.00013373488 
  164000    34.615432 -0.00059762958    141.03156    270.36094          600          600          600 -0.0028865306    17777.748 0.00013373488 
  165000    28.992094  0.002565289    147.21974    282.22384          600          600          600 -0.030993064    16663.041 0.00013373488 
  166000    20.025082  0.002500641    157.91024    302.71779          600          600          600  0.010707086    16400.208 0.00013373488 
  167000     34.18584  0.004263188     158.3535    303.56752          600          600          600 -0.015885051    17569.752 0.00013373488 
  168000    35.607507 -0.025140046    152.31095    291.98381          600          600          600 -0.025343923    18293.849 0.00013373488 
  169000    35.659419 -0.0028827678    155.30002    297.71393          600          600          600 -0.025908156    17734.301 0.00013373488 
  170000    33.620299  0.037686563    157.98884    302.86846          600          600          600  0.062547596    18700.361 0.00013373488 
  171000    23.377265  0.021798342    154.28323    295.76472          600          600          600  0.011613288    17783.099 0.00013373488 
  172000    23.458194 0.0097257989    145.84489    279.58822          600          600          600  0.021535455    17082.654 0.00013373488 
  173000    22.066791 -0.0076995641    154.17628     295.5597          600          600          600 -0.006941243    17410.036 0.00013373488 
  174000    32.677184 -0.019871866    138.23708    265.00387          600          600          600 -0.0093460898    17112.484 0.00013373488 
  175000    32.127953 -0.018179853     144.4235    276.86338          600          600          600  -0.02832903    17518.018 0.00013373488 
  176000    23.461606 0.0096630891    146.00473    279.89463          600          600          600  0.045605184    17256.249 0.00013373488 
  177000    32.313222 0.0058412041    189.72699    363.71127          600          600          600 -0.026910002    16860.032 0.00013373488 
  178000    40.050244 -0.011781655    163.81322    314.03395          600          600          600  -0.02892732    17403.101 0.00013373488 
  179000    25.208036 0.0058309062      160.465    307.61533          600          600          600  0.020318406    16209.056 0.00013373488 
  180000    35.871183 -0.019478172    158.04526    302.97662          600          600          600 -0.0049312528    17025.032 0.00013373488 
  181000    34.006939 -0.038734057    138.54339    265.59106          600          600          600 -0.040200153    16535.728 0.00013373488 
  182000    28.052888 0.00045272344    150.02317    287.59809          600          600          600  0.025764693    16290.078 0.00013373488 
  183000    24.795323  0.027860988    142.96769    274.07255          600          600          600  0.046793335    17506.392 0.00013373488 
  184000    32.617482  0.023686867    151.28897    290.02466          600          600          600  0.029206091    18620.992 0.00013373488 
  185000    35.770486 0.0022678324    141.23782    270.75634          600          600          600  0.016012542     17973.92 0.00013373488 
  186000    34.819927 -0.011628297    157.29352    301.53552          600          600          600  0.017804651    18035.906 0.00013373488 
  187000    30.156762 0.0076206546    145.48496    278.89823          600          600          600 -0.0022943444    18098.555 0.00013373488 
  188000    35.492576 -0.006736548    171.61983     328.9994          600          600          600 -0.032117192    17828.226 0.00013373488 
  189000    42.333381 0.0043544326     166.1436    318.50135          600          600          600  0.010295085    17819.894 0.00013373488 
  190000    27.254445  0.042696581    162.03821    310.63121          600          600          600  0.045946425    18718.889 0.00013373488 
  191000    26.001417 -0.020389057    158.73336    304.29573          600          600          600 -0.013243022    18370.207 0.00013373488 
  192000    33.839912 -0.012445255    159.16974    305.13227          600          600          600  -0.00894524    18479.471 0.00013373488 
  193000    38.091209 -0.001537909    156.52538    300.06298          600          600          600 -0.033641639    17625.792 0.00013373488 
  194000    30.746179 0.0043945357    161.78239    310.14079          600          600          600  0.007331907    18204.998 0.00013373488 
  195000    38.068434 -0.0060616013    170.31541    326.49881          600          600          600 0.0011133046    19108.795 0.00013373488 
  196000    44.933295  0.030716721    160.81244    308.28137          600          600          600  0.018123837    19008.856 0.00013373488 
  197000    42.108076 -0.012080283    159.87288    306.48021          600          600          600 -0.033321845    18322.059 0.00013373488 
  198000    32.402265   0.02366369    146.64134    281.11503          600          600          600  0.032973783    17952.071 0.00013373488 
  199000    39.857108 -0.0038507725    147.65817    283.06432          600          600          600  0.010211038    18004.396 0.00013373488 
  200000    24.875037  0.017711089    163.63933    313.70059          600          600          600  0.011380436    18849.364 0.00013373488 
  201000    34.696791  0.024195998    165.49815      317.264          600          600          600  0.016331732    18783.606 0.00013373488 
  202000    27.566317  0.014164813    161.24459    309.10982          600          600          600  0.050857097      19037.5 0.00013373488 
  203000    38.609871 -0.019243121    150.18941    287.91676          600          600          600  0.024968961    18918.913 0.00013373488 
  204000    41.636222 0.0014583321    147.94592    283.61594          600          600          600 -0.0012417085    19254.854 0.00013373488 
  205000    44.588883 -0.026010553    153.87944    294.99065          600          600          600 -0.025597473    18882.884 0.00013373488 
  206000    35.916302 -0.0017655401    179.62222    344.34019          600          600          600 0.0039566361    18550.495 0.00013373488 
  207000    43.649935 0.0016813068    153.85049    294.93515          600          600          600 -0.0068978304    17796.077 0.00013373488 
  208000    31.716081 0.0038430262    151.71061    290.83295          600          600          600 0.0092888861    18274.242 0.00013373488 
  209000    36.619729 -0.018443836    137.41723    263.43218          600          600          600 -0.053553068    18586.665 0.00013373488 
  210000    42.008546 -0.0046313082    153.74488     294.7327          600          600          600 0.0055106757    18744.487 0.00013373488 
  211000    26.805723 -0.0051332244    167.92739    321.92091          600          600          600 0.0010492919    17544.764 0.00013373488 
  212000    32.940644 -0.00085560773    149.41629    286.43468          600          600          600 -0.012113159    17610.621 0.00013373488 
  213000    40.328564  0.021142073     159.9807    306.68691          600          600          600  0.016767869    18812.166 0.00013373488 
  214000    25.660185 -0.0066596821    152.07052     291.5229          600          600          600 -0.022820722    18777.971 0.00013373488 
  215000    26.010398 -0.0017891579    162.50935     311.5344          600          600          600  0.020092986    18912.515 0.00013373488 
  216000    39.833131 -0.009749728    144.23727    276.50637          600          600          600 -0.008190236    18780.073 0.00013373488 
  217000    22.173043   0.01040257    165.01678     316.3412          600          600          600 -0.0044731729    19127.007 0.00013373488 
  218000    42.519868  0.029912004    155.96303    298.98494          600          600          600  0.025493016     19444.63 0.00013373488 
  219000    33.485259 0.0063207585    152.95525    293.21895          600          600          600  0.015686585    19109.927 0.00013373488 
  220000    39.964603  0.023438553    162.45349    311.42732          600          600          600 0.0063489329    19204.513 0.00013373488 
  221000    38.656897 -0.014964923    157.17405    301.30649          600          600          600 -0.042303782    19152.685 0.00013373488 
  222000     36.57666 -0.021440561     152.2008    291.77266          600          600          600 -0.019536003    19232.957 0.00013373488 
  223000    33.452207  0.015456193    150.06883    287.68561          600          600          600 0.0050856697    19205.656 0.00013373488 
  224000    31.343662  0.011763892    154.41516    296.01764          600          600          600   0.03325088    18555.337 0.00013373488 
  225000    30.299093 -0.022188435    150.65777    288.81463          600          600          600 -0.037126427    18320.698 0.00013373488 
  226000    30.696933 -0.030389343    154.53162    296.24089          600          600          600 -0.047314851    17818.985 0.00013373488 
  227000    47.591087 -0.0024844425    148.92527    285.49338          600          600          600 -0.0070527549     17495.95 0.00013373488 
  228000    30.205711 -0.0087411105    163.02902    312.53062          600          600          600  -0.01491206     17462.66 0.00013373488 
  229000    36.018573 -0.0014363276    149.17806    285.97799          600          600          600 -0.016229545    17160.654 0.00013373488 
  230000    24.235794  0.023465252    153.06495    293.42925          600          600          600  0.034648158     17246.67 0.00013373488 
  231000    30.866866 -0.0011606381    152.46909    292.28698          600          600          600 -0.0099405885     17110.11 0.00013373488 
  232000    48.463682 -0.0048203322    156.08739    299.22334          600          600          600 -0.010340225    17641.064 0.00013373488 
  233000    31.222422  -0.02096459    151.12961    289.71917          600          600          600 -0.010094905    17476.121 0.00013373488 
  234000    38.583706 -0.027743803    140.68039    269.68775          600          600          600 -0.028761504    17336.706 0.00013373488 
  235000    42.849699  0.012740148    159.08995    304.97932          600          600          600  0.040176978    16464.134 0.00013373488 
  236000    36.530224 0.0072409611    153.84698    294.92843          600          600          600 0.0066204671    16759.451 0.00013373488 
  237000    38.953461   0.01400295    155.80045    298.67327          600          600          600  0.019903567    16940.523 0.00013373488 
  238000    30.640564 0.0095155225    147.41461    282.59742          600          600          600  0.019571422    16930.812 0.00013373488 
  239000    23.655901 -0.0005949002    159.35435    305.48618          600          600          600 0.0051708115    17102.785 0.00013373488 
  240000     35.43616 -0.0077487869     155.7113    298.50237          600          600          600 -0.036731539    17196.889 0.00013373488 
  241000    25.568251 -0.0043852465    157.76461    302.43862          600          600          600 -0.018308876    15967.291 0.00013373488 
  242000    24.860137   0.02469211    180.50013    346.02316          600          600          600 0.0045437737    16422.812 0.00013373488 
  243000    30.177459  0.025199223    153.60456     294.4637          600          600          600 -0.0060586313    16017.903 0.00013373488 
  244000    27.671665  0.023752043    163.69545    313.80818          600          600          600 0.0097163258    16398.284 0.00013373488 
  245000     21.21851  0.033871806    169.91652    325.73412          600          600          600  0.016541125    17274.728 0.00013373488 
  246000    30.332381 -0.032316789     146.2828     280.4277          600          600          600 0.0019642174    18022.576 0.00013373488 
  247000    37.368149  0.007991926    151.03683    289.54129          600          600          600 0.00096699827    18567.001 0.00013373488 
  248000    36.763999 -0.010894383    158.20971    303.29188          600          600          600 -0.030916222    18366.828 0.00013373488 
  249000    34.858648  0.006846398    155.27101    297.65832          600          600          600  0.030890173    17944.928 0.00013373488 
  250000    20.795362 0.0034631348    141.30868     270.8922          600          600          600 0.0041808682    17542.636 0.00013373488 
  251000    36.347053 0.0094647882    167.28313    320.68585          600          600          600 -0.017193973    16847.233 0.00013373488 
  252000    35.344465  0.023677396    186.28462    357.11217          600          600          600  0.031483678    17311.805 0.00013373488 
  253000    32.102876  0.031533439    162.42126    311.36553          600          600          600  0.018037779    17769.915 0.00013373488 
  254000    27.738791 -0.0015749841     153.4972    294.25788          600          600          600 -0.020695411    16914.426 0.00013373488 
  255000    24.651769 -0.032353709    159.60121    305.95941          600          600          600 -0.025257259    16781.646 0.00013373488 
  256000    39.952837 -0.0077329573    146.29442    280.44998          600          600          600 -0.013482248    17254.759 0.00013373488 
  257000    34.165719 0.0030862738    160.95663     308.5578          600          600          600 -0.0050454434    17579.031 0.00013373488 
  258000    31.712313  0.019668684    172.04506    329.81458          600          600          600  0.012826692    17848.482 0.00013373488 
  259000    30.261429 -0.016138819     155.1855     297.4944          600          600          600 -0.017393635    16796.902 0.00013373488 
  260000     41.03663  0.033729949    161.30147    309.21886          600          600          600  0.026211078    17422.475 0.00013373488 
  261000      28.1904 -0.0077113672    171.96898    329.66874          600          600          600 -0.022549789    16459.805 0.00013373488 
  262000    23.979899 0.0087949674    165.89201    318.01904          600          600          600 0.0068925845    16690.359 0.00013373488 
  263000     31.92627 0.0068969327    151.49284    290.41548          600          600          600  0.056853757    16895.893 0.00013373488 
  264000    32.652373  0.020900323    156.80808    300.60493          600          600          600  0.017186441    16572.971 0.00013373488 
  265000    26.902014 -0.0011771749    144.59348    277.18923          600          600          600  0.013133858    17566.367 0.00013373488 
  266000     33.08361 0.0028802476    149.19272    286.00608          600          600          600 -0.0049656835    18582.548 0.00013373488 
  267000    29.822895 -0.010824793    158.00157    302.89288          600          600          600 -0.040391525    18298.558 0.00013373488 
  268000    24.419933 -0.0057293445    168.95143    323.88401          600          600          600 0.0070426504    17391.051 0.00013373488 
  269000    33.464999 -0.022419296      155.214    297.54904          600          600          600  -0.03114849    17293.532 0.00013373488 
  270000    36.414312  0.011519209    153.25759    293.79854          600          600          600  0.029776801     17475.83 0.00013373488 
  271000    29.621345 -0.051989441    148.26704    284.23153          600          600          600 -0.065023361    17274.728 0.00013373488 
  272000     30.06767    0.0152551    176.78766    338.90627          600          600          600 -0.0047627086    16513.333 0.00013373488 
  273000     27.09793 -0.0089179379    159.51165    305.78774          600          600          600 -0.017084491    15363.357 0.00013373488 
  274000     27.88756 -0.020305869    157.34971    301.64323          600          600          600 -0.012584665    16305.783 0.00013373488 
  275000     38.85377 -0.032006195    143.20832    274.53386          600          600          600 -0.047144503    17135.625 0.00013373488 
  276000    22.304306 -0.0016563063    173.15967    331.95132          600          600          600 -0.011914087    17444.068 0.00013373488 
  277000    28.846899 -0.031824362    153.58563    294.42741          600          600          600 -0.025837464    17907.999 0.00013373488 
  278000    34.813755 -0.009590021    139.62004    267.65503          600          600          600  -0.02391102    17830.423 0.00013373488 
  279000    25.499171  0.011287293    162.78006    312.05336          600          600          600  0.028727151    17425.225 0.00013373488 
  280000    29.367238 0.0019820423    154.20639    295.61742          600          600          600  0.025556088    16031.556 0.00013373488 
  281000    36.025785 -0.0027026701    165.32641    316.93477          600          600          600 -0.011319083    16105.365 0.00013373488 
  282000    27.207371  0.014140204    152.13734      291.651          600          600          600  0.013858209    16149.641 0.00013373488 
  283000    29.851077 -0.025194466    152.01029    291.40745          600          600          600 -0.018872226    16541.206 0.00013373488 
  284000    37.890579 -0.021864897    135.71302    260.16518          600          600          600   -0.0304632      16720.7 0.00013373488 
  285000    36.933373 -0.026790841    146.11784    280.11146          600          600          600 -0.029435423    17866.729 0.00013373488 
  286000    29.192234 -0.014691565    150.78142    289.05166          600          600          600 -0.027464285    18328.144 0.00013373488 
  287000    29.132478 0.0068436242    140.33316     269.0221          600          600          600  0.011565878    18608.765 0.00013373488 
  288000    40.993701 -0.017992135    154.24989     295.7008          600          600          600 -0.0082592787    18434.556 0.00013373488 
  289000    34.703651 0.0062217391    150.71361    288.92167          600          600          600  0.011547411    19393.383 0.00013373488 
  290000    34.287704 -0.020349006    147.32039    282.41679          600          600          600 -0.025568109    18846.908 0.00013373488 
  291000    17.589225  0.010072072    135.40817    259.58077          600          600          600 -0.00080156422     18503.52 0.00013373488 
  292000    26.541619    0.0294535    155.83984    298.74878          600          600          600  0.046505354    18821.705 0.00013373488 
  293000    25.863236  0.031791357    162.94373    312.36711          600          600          600  0.045837661    16105.674 0.00013373488 
  294000    33.524373 0.0029848733    158.20124    303.27564          600          600          600 0.0037296296    15514.463 0.00013373488 
  295000    33.536027 -0.037950505    158.89095    304.59784          600          600          600 -0.063258896    15704.475 0.00013373488 
  296000    31.239236 -0.014111112    160.78297    308.22489          600          600          600 -0.017631918    16218.771 0.00013373488 
  297000    24.737743  0.015920623    172.55514    330.79242          600          600          600 0.0054430747    16929.036 0.00013373488 
  298000    29.755759 -0.039805571    150.15399    287.84888          600          600          600 -0.062668719    17127.158 0.00013373488 
  299000    13.364609  0.019671428    149.98214    287.51943          600          600          600  0.024582822    16888.749 0.00013373488 
  300000    28.336987 -0.0014577421    142.66688    273.49589          600          600          600 -0.0083771701    17318.095 0.00013373488 
  301000    27.253456 -0.027569815    159.20322    305.19646          600          600          600 -0.038360862    17425.225 0.00013373488 
  302000    32.606648 -0.0025201333    162.95719    312.39291          600          600          600 0.0097478495    17702.266 0.00013373488 
  303000    29.141494  -0.01721312    165.80204    317.84656          600          600          600  -0.03283467    18848.009 0.00013373488 
  304000    38.182182 -0.00096900489    156.05576    299.16271          600          600          600  -0.03578791    18642.428 0.00013373488 
  305000    36.403591 -0.039396196    163.54213    313.51427          600          600          600 -0.075063052    18813.684 0.00013373488 
  306000    33.558268 -0.024407768    161.81493    310.20318          600          600          600 -0.013471905    18479.471 0.00013373488 
  307000    33.046362 -0.0061510346     152.5769    292.49364          600          600          600 -0.0084683063    17943.316 0.00013373488 
  308000    44.097142 -0.041817027    148.64611    284.95822          600          600          600 -0.066747102    17986.946 0.00013373488 
  309000    46.059478  0.012940689     164.0492    314.48632          600          600          600 -0.0016184234    18195.363 0.00013373488 
  310000    31.560804   0.02175565    167.00662    320.15577          600          600          600  0.046196943    18079.598 0.00013373488 
  311000    30.874318 -0.012390932    149.29438    286.20097          600          600          600 -0.015449315    18654.948 0.00013373488 
  312000    34.225631 0.0069152454    159.57548     305.9101          600          600          600 -0.018348219    17728.904 0.00013373488 
  313000    36.536754   0.02452749    156.61227    300.22955          600          600          600  0.021626255    18009.266 0.00013373488 
  314000    37.010699 -0.031697375     149.6523    286.88711          600          600          600 -0.027292248    18222.635 0.00013373488 
  315000    31.375671 0.0072809238    152.28715    291.93819          600          600          600 -0.0053685688    17036.927 0.00013373488 
  316000    36.314653 0.0011263403    158.03838    302.96343          600          600          600  0.032749962    17861.936 0.00013373488 
  317000    23.746019 0.0075180099    146.81759     281.4529          600          600          600 0.0011746865    18072.353 0.00013373488 
  318000    32.443261 -0.0040618526    155.60385    298.29638          600          600          600  0.008385587    17701.668 0.00013373488 
  319000    31.912543  0.027221292    154.05271    295.32282          600          600          600    0.0209068    17387.662 0.00013373488 
  320000    34.025954  0.018597497    157.88975     302.6785          600          600          600 0.0030828537    17269.323 0.00013373488 
  321000    47.000453 -0.046366959     141.7363    271.71195          600          600          600 -0.047997517    18081.936 0.00013373488 
  322000    28.819115  0.015872444    170.19651    326.27087          600          600          600 -0.011329576    17972.995 0.00013373488 
  323000    24.991063 0.0093247827    159.82372    306.38599          600          600          600 -0.017281283    17609.956 0.00013373488 
  324000    28.525008 0.0074116646    172.65417    330.98225          600          600          600  0.028897336    17807.562 0.00013373488 
  325000    30.041919  0.022906443    144.42591      276.868          600          600          600  0.010396177    18233.171 0.00013373488 
  326000    30.892131 0.0069627571     158.3179    303.49928          600          600          600 -0.023141132    18768.728 0.00013373488 
  327000    32.122525  0.013337538    152.99976    293.30428          600          600          600 -0.012358182    18627.939 0.00013373488 
  328000    28.984267 -0.0069375418    169.33315    324.61579          600          600          600 0.00064073488      18034.2 0.00013373488 
  329000    34.659275 -0.0056721101    159.04812    304.89913          600          600          600 -0.010821064    17711.086 0.00013373488 
  330000    31.013857 -0.020534516    148.44531    284.57329          600          600          600   -0.0206428    17806.579 0.00013373488 
  331000    25.246333 0.0023239199    164.73341    315.79798          600          600          600 -0.0040874069    18815.035 0.00013373488 
  332000    30.463735  0.016339014    149.42677    286.45476          600          600          600  0.038914659    17762.314 0.00013373488 
  333000    39.234164 -0.050972087    154.09494    295.40378          600          600          600 -0.039432544    18630.256 0.00013373488 
  334000    26.437804  0.027665018    138.72965    265.94813          600          600          600  0.031883142    18640.688 0.00013373488 
  335000     32.04933 -0.019738807    160.97694    308.59673          600          600          600  0.010976595    17222.734 0.00013373488 
  336000    31.073299 -0.0040018525    180.51148    346.04492          600          600          600 0.0014861139    15689.201 0.00013373488 
  337000    37.500992 -0.035856936    149.32221    286.25432          600          600          600   -0.0384219     16056.78 0.00013373488 
  338000     32.47563 -0.030499912    152.60853    292.55429          600          600          600 0.00035137672    17466.369 0.00013373488 
  339000     44.41474 -0.034604571    162.99186    312.45938          600          600          600 -0.026730518    16532.469 0.00013373488 
  340000    34.937238 -0.0074541173    154.52963    296.23708          600          600          600 -0.0029845318    16400.144 0.00013373488 
  341000    36.273749 -0.019733283    153.54068    294.34123          600          600          600 -0.037904402    16421.976 0.00013373488 
  342000      26.0874 -0.023232886    146.93323     281.6746          600          600          600 -0.011449362    15972.155 0.00013373488 
  343000    42.874214 -0.027068395    137.81742    264.19936          600          600          600  0.013051278    16644.196 0.00013373488 
  344000    28.571277 -0.011423093    165.29077    316.86645          600          600          600 -0.040284682    16827.902 0.00013373488 
  345000    34.768262 0.0026522768    161.36666    309.34384          600          600          600 -0.0090395397    16136.097 0.00013373488 
  346000    32.221434  0.015440445    161.54505    309.68581          600          600          600  0.012147699    16098.627 0.00013373488 
  347000    32.882022   -0.0208798    173.47917    332.56381          600          600          600 -0.073124652    16729.103 0.00013373488 
  348000    25.250204 0.0089448251    152.52145    292.38734          600          600          600 -0.032939708    16679.474 0.00013373488 
  349000    35.076411 -0.0052456177    155.07318    297.27907          600          600          600 -0.014821457    16733.308 0.00013373488 
  350000    35.609802 0.0028560996    151.60886    290.63789          600          600          600 -0.0067943035    16743.127 0.00013373488 
  351000    32.942284 -0.0095250732    147.47327    282.70987          600          600          600 -0.024440684    16537.684 0.00013373488 
  352000    32.291612  0.016882752    160.68506    308.03718          600          600          600  0.034649813    16051.864 0.00013373488 
  353000    27.759627 -0.013864603    161.96646    310.49366          600          600          600 -0.010683454    16010.016 0.00013373488 
  354000    42.667254  -0.01015573    160.94263    308.53095          600          600          600 -0.020297016    15527.213 0.00013373488 
  355000    32.094068 -0.00038898161    153.39013    294.05263          600          600          600 -4.2880966e-06    15489.025 0.00013373488 
  356000    27.174396  0.022909096    152.94829     293.2056          600          600          600 0.0072247422    15532.503 0.00013373488 
  357000    16.351928  0.024621172    158.07778    303.03897          600          600          600  0.033141463    14905.555 0.00013373488 
  358000    19.729546 -0.014322115    159.56326    305.88668          600          600          600 -0.019561004    15635.802 0.00013373488 
  359000    31.225851 -0.014552497    155.49541     298.0885          600          600          600 -0.00077795793      16971.3 0.00013373488 
  360000    20.061374  0.021514667    158.39691    303.65074          600          600          600  0.025117825    15810.737 0.00013373488 
  361000    28.401353   0.02633159    163.23862    312.93242          600          600          600  0.038495583    15404.774 0.00013373488 
  362000     33.84038 -0.016389202    158.56402     303.9711          600          600          600 0.0069913576     15165.05 0.00013373488 
  363000     24.31797 0.00040955719    146.41471    280.68057          600          600          600 -0.017347675    15520.491 0.00013373488 
  364000    27.387545 -0.0011463126    170.24972    326.37287          600          600          600  0.014276362    15181.682 0.00013373488 
  365000    28.386069 -0.020959724    147.90326    283.53416          600          600          600  0.003899025    14409.603 0.00013373488 
  366000    32.865644 -0.017173273    154.07925    295.37368          600          600          600 -0.013775313    14745.364 0.00013373488 
  367000    39.856115 -0.017235563    147.82782    283.38954          600          600          600 -0.036720133    14935.172 0.00013373488 
  368000     30.45635 0.0029659218    164.29533    314.95816          600          600          600  0.014253654    14969.606 0.00013373488 
  369000    26.360285 -0.019235822    141.11455    270.52003          600          600          600 -0.0042789654    15651.439 0.00013373488 
  370000    41.475691 -0.0086704943    159.14379    305.08253          600          600          600 -0.00031754571    15567.092 0.00013373488 
  371000     23.31271  0.016296306    175.83197    337.07419          600          600          600 0.0065005576     15706.71 0.00013373488 
  372000    21.331463 0.0022297323    158.86402    304.54621          600          600          600 -0.016468433    15961.215 0.00013373488 
  373000    31.904333  0.010424144    197.74343    379.07899          600          600          600  0.014364807    16463.876 0.00013373488 
  374000    43.398394 -0.0019954851     168.9689    323.91751          600          600          600 -0.019158617    16266.513 0.00013373488 
  375000    34.110925 -0.0060244779    167.34903    320.81219          600          600          600 0.0028812946    16155.862 0.00013373488 
  376000    29.572301  -0.03593881    174.97842     335.4379          600          600          600  -0.01084625    17335.846 0.00013373488 
  377000    35.258843 0.0065504472    146.78856    281.39726          600          600          600 0.0084807308    17796.757 0.00013373488 
  378000    30.244782 -0.0096165101    164.07675    314.53915          600          600          600 -0.016583267    17488.946 0.00013373488 
  379000    30.726598  0.002519696    147.28494    282.34882          600          600          600 0.0046746543    17068.333 0.00013373488 
  380000    25.994443  0.017997982    157.33247    301.61019          600          600          600  0.025924252    16377.091 0.00013373488 
  381000    23.022751  0.016759509    150.94069    289.35699          600          600          600  0.031965149    15826.786 0.00013373488 
  382000    22.813708 0.0016859548    148.43942    284.56199          600          600          600 0.0024680933     15555.95 0.00013373488 
  383000    23.228296 -0.0016302407    178.25197    341.71338          600          600          600 0.0083986652      15823.8 0.00013373488 
  384000    23.072418 -0.0041342333    149.14637    285.91723          600          600          600 -0.0054502042    16106.663 0.00013373488 
  385000     32.22462 -0.0072960891    161.90921    310.38392          600          600          600 -0.0089687655    14755.998 0.00013373488 
  386000    20.018951  0.020828848    157.36893    301.68008          600          600          600 0.0027742448    14555.873 0.00013373488 
  387000    14.587215  0.019544686    173.68942    332.96685          600          600          600 -0.024203351    14361.202 0.00013373488 
  388000    29.582714 -0.014311498    132.56195     254.1245          600          600          600 -0.021250141    14746.193 0.00013373488 
  389000    31.068373  0.029822192    142.18639    272.57478          600          600          600  0.041694104    15976.232 0.00013373488 
  390000    17.922242 -0.034187427    167.42076    320.94969          600          600          600 -0.013824418    15490.455 0.00013373488 
  391000    20.387441 -0.009768454    136.02005    260.75376          600          600          600 -0.028584322    15436.864 0.00013373488 
  392000    26.503823 -0.00062420393     144.6522     277.3018          600          600          600 0.0077043271    16791.455 0.00013373488 
  393000    26.467111  0.036168659    156.24644    299.52824          600          600          600  0.031815427    16908.153 0.00013373488 
  394000    34.449079  0.031300414    149.00308    285.64255          600          600          600 0.0081070158    17166.202 0.00013373488 
  395000    28.278603  0.010090787     154.1322     295.4752          600          600          600  0.022388758    16259.891 0.00013373488 
  396000    34.868044 -0.038274281     147.5858    282.92559          600          600          600 -0.039017698     16801.41 0.00013373488 
  397000    38.201361 -0.026059461    159.53409    305.83075          600          600          600 -0.0080961866    17039.557 0.00013373488 
  398000    30.083959 0.0019756634    158.83631     304.4931          600          600          600 0.0014523319    17604.634 0.00013373488 
  399000    41.246019  -0.01420005    152.33395    292.02791          600          600          600  0.020147841    17716.098 0.00013373488 
  400000    53.392472  0.012058848     159.7858    306.31328          600          600          600 0.0079304406    17647.595 0.00013373488 
  401000     30.29228  0.027437038    167.06754    320.27256          600          600          600  0.017076763    17400.646 0.00013373488 
  402000    32.136862 -0.014971736    152.72886    292.78496          600          600          600 -0.015408632    17881.735 0.00013373488 
  403000    24.627704  0.012225691    166.09988    318.41753          600          600          600 -0.0021893492    17059.031 0.00013373488 
  404000    27.049665 -0.00025085114    153.88332    294.99808          600          600          600  0.015125927    16190.911 0.00013373488 
  405000    25.821965 0.00064385052    165.49594    317.25977          600          600          600  0.022342621    15849.872 0.00013373488 
  406000    29.469512  0.040522897    166.49418     319.1734          600          600          600  0.031635513    15886.613 0.00013373488 
  407000    28.154175 -0.013739296    160.62556    307.92312          600          600          600  0.005374017    16469.629 0.00013373488 
  408000     34.00948 -0.0047997896    170.21397    326.30433          600          600          600  0.011119484    17492.593 0.00013373488 
  409000    42.059654 0.0080860934    156.43299    299.88586          600          600          600 -0.0087948349    16754.898 0.00013373488 
  410000    15.266112    0.0087785    151.47819    290.38739          600          600          600  0.011067665     15959.15 0.00013373488 
  411000    22.593716 -0.012809586    153.41763    294.10534          600          600          600 -0.031229059    15236.224 0.00013373488 
  412000    24.740636  0.018613055    144.20568     276.4458          600          600          600  0.028407201    16103.324 0.00013373488 
  413000    32.545049 0.0040926785    159.78691    306.31541          600          600          600  0.013016776    15753.491 0.00013373488 
  414000    17.078358  0.017376553    162.94709    312.37355          600          600          600  0.048078422    15648.987 0.00013373488 
  415000    24.808805 -0.00046760786    154.62206    296.41426          600          600          600 -0.0033715959    14938.949 0.00013373488 
  416000    34.961861 -0.021890891    168.61198    323.23328          600          600          600 -0.025866737    14643.229 0.00013373488 
  417000    30.191016 -0.022524527    156.37941    299.78315          600          600          600 -0.010105428    14959.302 0.00013373488 
  418000    23.198263  0.015204313    152.72315    292.77401          600          600          600  0.024669899    15319.588 0.00013373488 
  419000    28.959319 0.00028042287    160.36885    307.43101          600          600          600 -0.0076649542    15420.405 0.00013373488 
  420000    23.085817  -0.01407247    153.38185    294.03676          600          600          600 -0.018247103    16058.871 0.00013373488 
  421000    28.119728 -0.0006247827    167.41511    320.93887          600          600          600 -0.014118118    15426.134 0.00013373488 
  422000    39.028372 -0.013672213      159.795    306.33093          600          600          600 -0.022122889    16029.473 0.00013373488 
  423000    39.456312  0.012985828    150.07051    287.68884          600          600          600  0.032252114    16083.132 0.00013373488 
  424000    27.721896 -0.0012435815    163.57172    313.57099          600          600          600 -0.016797129    15449.487 0.00013373488 
  425000    27.187734  0.011379807      162.623    311.75227          600          600          600 0.0073625198    15108.511 0.00013373488 
  426000    30.097391 -0.001107452    154.64922    296.46633          600          600          600 -0.00019680465    15425.453 0.00013373488 
  427000    26.526584 -0.00023664441    138.21143    264.95468          600          600          600  0.014804314    14752.729 0.00013373488 
  428000    25.322865 0.0081230623     163.0832    312.63447          600          600          600 0.0051341436    14811.965 0.00013373488 
  429000    35.033248 -0.017486192    169.39055    324.72582          600          600          600 -0.034417704    14387.262 0.00013373488 
  430000    26.213968 -0.016241402    170.86637      327.555          600          600          600 -0.024980681    14177.514 0.00013373488 
  431000    32.859024  -0.01697734    164.80272    315.93083          600          600          600  0.034381218    14367.844 0.00013373488 
  432000    32.504557 0.0097396181    165.71355    317.67693          600          600          600  0.035600897    14261.489 0.00013373488 
  433000    29.382305  0.043299778    154.00897    295.23897          600          600          600  0.042114812    13762.149 0.00013373488 
  434000    19.634643  0.012202284    135.85658    260.44038          600          600          600 0.0084522203    13950.508 0.00013373488 
  435000    28.932053  0.005263571    171.03037    327.86939          600          600          600 -0.0026143015    14452.303 0.00013373488 
  436000    15.014926 -0.023762503    164.35276    315.06826          600          600          600 -0.011521119    14452.353 0.00013373488 
  437000    32.156556 -0.0060958846    156.16598    299.37401          600          600          600  0.022253163    14515.473 0.00013373488 
  438000    28.409859 -0.00023549596    150.73744    288.96736          600          600          600 -0.012372854     14322.95 0.00013373488 
  439000    33.980862 -0.0069598545    154.58541      296.344          600          600          600 -0.031096274    14908.257 0.00013373488 
  440000    27.205967 0.0029942522    179.42914    343.97005          600          600          600 0.0081821481    14002.811 0.00013373488 
  441000    28.908973  0.017148986    148.00676    283.73257          600          600          600 -0.00028528042    14492.552 0.00013373488 
  442000     21.60485 0.00047020194    145.95606    279.80134          600          600          600  0.010794505    14355.058 0.00013373488 
  443000     24.28479  0.025355697    159.24103    305.26894          600          600          600  0.032612691    13638.106 0.00013373488 
  444000    33.518281  0.024436309    164.72884    315.78921          600          600          600 -0.0023828017    13438.501 0.00013373488 
  445000    30.075809 -0.0036187887    174.27639     334.0921          600          600          600 -0.005111012    13446.644 0.00013373488 
  446000    29.222542 0.0033142478     167.4577    321.02051          600          600          600 0.0024409996    13913.025 0.00013373488 
  447000    29.323816 0.0012785404    146.18826    280.24647          600          600          600 0.0035201061    14847.357 0.00013373488 
  448000    35.910977 -0.058955771    150.71201    288.91861          600          600          600 -0.077662852    14014.087 0.00013373488 
  449000    20.274693 -0.029823212    165.81218      317.866          600          600          600 -0.046753152    13947.354 0.00013373488 
  450000    19.133925 0.00094695854    137.70389    263.98172          600          600          600  0.020936953    14513.615 0.00013373488 
  451000     28.17516 0.0096816559    155.19906    297.52039          600          600          600  0.035185153    14696.333 0.00013373488 
  452000    37.201828 0.0090962494    158.04157    302.96955          600          600          600  0.015980413    14954.395 0.00013373488 
  453000    31.161303 0.0089361907     153.2219    293.73013          600          600          600  0.021457352    15220.467 0.00013373488 
  454000    36.562395 -0.005964344    164.49821     315.3471          600          600          600  0.020530196    13231.368 0.00013373488 
  455000    26.434624  0.039264959    155.07866    297.28958          600          600          600  0.036343946    14195.892 0.00013373488 
  456000    33.083075 -0.0021147147    153.34351    293.96326          600          600          600 -0.0033551466    14437.727 0.00013373488 
  457000    33.517483 -0.0067250413    160.18863    307.08551          600          600          600 -0.021285906    14262.459 0.00013373488 
  458000    37.659974  0.041386406    162.74582    311.98772          600          600          600 0.0028091401    15587.746 0.00013373488 
  459000    37.145369 -0.0080938336    145.76845    279.44169          600          600          600 -0.004761202    15659.269 0.00013373488 
  460000    27.801096  0.020854316    164.10379    314.59097          600          600          600  0.073683378    15071.106 0.00013373488 
  461000    27.552251    0.0182286    160.42073    307.53047          600          600          600  0.023960091    14757.556 0.00013373488 
  462000    34.486733  0.029197615    157.36769    301.67771          600          600          600  0.013540311    14522.861 0.00013373488 
  463000    25.432958 0.0056917948     164.6813    315.69807          600          600          600 -0.0051762408    14452.303 0.00013373488 
  464000    27.675832 -0.010969935    154.70059     296.5648          600          600          600  0.021599941     15309.97 0.00013373488 
  465000    32.830715 0.0070184356    167.50708    321.11517          600          600          600  0.015107986    16124.868 0.00013373488 
  466000    23.291949  0.016504901    153.85294    294.93984          600          600          600  0.013258635    16080.789 0.00013373488 
  467000     36.30087  0.020443455    166.84747    319.85068          600          600          600  0.010114061    15679.641 0.00013373488 
  468000    32.876778 -0.031623591    151.19584    289.84612          600          600          600 -0.036843764    15955.568 0.00013373488 
  469000    32.364905 -0.015230474    141.27084    270.81966          600          600          600 -0.033889358    15578.251 0.00013373488 
  470000      36.9597 -0.0052596856    160.09485    306.90575          600          600          600 -0.036659695    15179.374 0.00013373488 
  471000    37.850787 -0.0054207117    174.20664    333.95839          600          600          600  0.023468095    15591.339 0.00013373488 
  472000    38.538236  0.012611505    150.91893    289.31528          600          600          600  0.016607015    15719.366 0.00013373488 
  473000    37.272363 -0.0053059527    156.14446    299.33274          600          600          600  0.013225005    15104.104 0.00013373488 
  474000    39.035151  0.018210221    146.77839    281.37776          600          600          600 -0.0041375247     14590.66 0.00013373488 
  475000    36.646033 0.0092418697    164.21474    314.80367          600          600          600 0.0050938924    15306.897 0.00013373488 
  476000     31.90942  0.018660279    169.29181    324.53654          600          600          600   0.02234463    15010.966 0.00013373488 
  477000    30.495941 -0.023172975    152.82277    292.96499          600          600          600 -0.060719366    15850.111 0.00013373488 
  478000    27.020759 0.0030237891    160.70871    308.08253          600          600          600   -0.0160564    15336.056 0.00013373488 
  479000    33.688944 0.0096106427    151.68422    290.78237          600          600          600 0.0074859934    13920.783 0.00013373488 
  480000    28.043841   0.01085765     145.4626    278.85536          600          600          600 -0.005580617    14743.809 0.00013373488 
  481000    23.444846  0.013458544     161.3678    309.34602          600          600          600  0.029908708    15017.039 0.00013373488 
  482000    32.199868 -0.0079371012     158.6786    304.19076          600          600          600 -0.036509249     15382.74 0.00013373488 
  483000    23.586055 0.0084457892    143.38955    274.88127          600          600          600  0.020936418    16032.843 0.00013373488 
  484000    31.900432 -0.00072234935    158.87019    304.55804          600          600          600  0.017316604    15871.764 0.00013373488 
  485000    34.846026 0.0098223901    159.50677    305.77838          600          600          600 -0.00080931755    15263.226 0.00013373488 
  486000    41.694351 0.0037895021    139.54187    267.50518          600          600          600  0.018544464    15398.101 0.00013373488 
  487000    31.564674 -0.030744851     143.4828    275.06004          600          600          600  -0.02355649    16214.821 0.00013373488 
  488000    36.770741 0.0031095788    159.30226    305.38632          600          600          600  0.027265015    15659.737 0.00013373488 
  489000    29.458099 0.0062629029    150.82935    289.14356          600          600          600  0.019959465    15267.893 0.00013373488 
  490000    26.194725 -0.010542953    147.21756    282.21966          600          600          600 -0.027696465    15224.168 0.00013373488 
  491000    29.066146 0.0084982279    155.40147    297.90842          600          600          600 -0.033975677    15843.047 0.00013373488 
  492000    32.788549 -0.017077264    151.41546    290.26713          600          600          600 -0.044760305    16216.702 0.00013373488 
  493000    25.043594  0.028863557    137.58087    263.74588          600          600          600  0.015895151    15563.453 0.00013373488 
  494000    23.462235 -0.0088822828    142.33191    272.85374          600          600          600 -0.002589841    15557.681 0.00013373488 
  495000    22.935005 0.0054618772    159.11239    305.02235          600          600          600 -0.0027429427    15469.088 0.00013373488 
  496000    32.267574  0.024514098    163.81498    314.03732          600          600          600  0.036759861    14850.248 0.00013373488 
  497000    30.045708 -0.011894857    140.71384    269.75187          600          600          600  0.016301244    15167.792 0.00013373488 
  498000    20.688585   0.02839006    162.69101    311.88264          600          600          600  0.021744427    14566.641 0.00013373488 
  499000    29.385604 0.0077712808    152.72652    292.78048          600          600          600 -0.025268068    15390.078 0.00013373488 
  500000    26.961317 0.0013093526    159.82335    306.38527          600          600          600 0.0022400227    15591.629 0.00013373488 
  501000    32.351985  0.027189858    159.58967     305.9373          600          600          600  0.036176519    14827.097 0.00013373488 
  502000    26.724865 -0.0046465902    147.67017    283.08732          600          600          600 -0.0044612377    14831.344 0.00013373488 
  503000    26.795113 0.0060097016    154.23176    295.66605          600          600          600 0.0093540828    15298.466 0.00013373488 
  504000    34.618379  0.021955966    164.94103    316.19598          600          600          600 0.0063386647    16267.837 0.00013373488 
  505000    30.747364 0.0054166157    154.12089    295.45352          600          600          600 -0.00099890149     16896.71 0.00013373488 
  506000    39.750563 -0.022791566    169.91238    325.72619          600          600          600 -0.031429785    17639.506 0.00013373488 
  507000    42.045649 -0.0060832567    159.16953    305.13187          600          600          600 -0.0062377851    17747.508 0.00013373488 
  508000    34.306374  0.029503867    169.30286    324.55772          600          600          600  0.015282869    18141.846 0.00013373488 
  509000    40.882133 -0.013762977    153.87369    294.97962          600          600          600  0.000320193    19092.703 0.00013373488 
  510000    33.711345 0.0085682659     154.5354    296.24814          600          600          600 -0.025592291    18045.373 0.00013373488 
  511000    30.554994 0.0028521941    154.25223    295.70529          600          600          600  0.025475137    18525.014 0.00013373488 
  512000    27.303743 -0.025098006    144.34903    276.72063          600          600          600 0.0050588434    19071.607 0.00013373488 
  513000    26.875783 -0.0078590314    157.11815    301.19933          600          600          600 -0.0074914532    18558.046 0.00013373488 
  514000    34.138095  0.028931709    172.31832    330.33843          600          600          600  0.041118707    16917.632 0.00013373488 
  515000    25.234917  0.022128164    166.94526    320.03814          600          600          600  0.031993491    16213.191 0.00013373488 
  516000    37.012086 -0.028270514    153.17595    293.64204          600          600          600 -0.057909698    16488.081 0.00013373488 
  517000     29.74979 -0.024828688    152.86332    293.04272          600          600          600 -0.025231209    17328.899 0.00013373488 
  518000    36.771569 -0.0026369231    153.08097    293.45995          600          600          600   0.04460221     17644.18 0.00013373488 
  519000    27.877005  0.030379665    181.49647    347.93317          600          600          600  0.055157263    17306.447 0.00013373488 
  520000    30.790638 0.0077122524    153.26977     293.8219          600          600          600  0.032122906    16832.426 0.00013373488 
  521000    43.151108 -0.020830151    169.32228    324.59495          600          600          600  0.026929447    17276.863 0.00013373488 
  522000    36.316687 -0.048782034    159.77762    306.29761          600          600          600 -0.034295233    17348.108 0.00013373488 
  523000    30.599605 -0.0093126627    153.94799    295.12206          600          600          600 -0.019709724    17735.876 0.00013373488 
  524000    33.707611  0.020417047    156.23561    299.50749          600          600          600  0.046622635     16046.46 0.00013373488 
  525000    32.330785 0.0017058072    159.72233    306.19162          600          600          600  0.018713187    16105.921 0.00013373488 
  526000    35.759128  0.013977254    151.71695     290.8451          600          600          600  0.006482666    16542.315 0.00013373488 
  527000    38.687829 0.0089116237    152.21258    291.79524          600          600          600  0.030750043    16859.151 0.00013373488 
  528000    32.071267  0.040945535    164.95637    316.22538          600          600          600  0.083014351    17061.044 0.00013373488 
  529000    35.815842 -0.032489145    174.74581    334.99199          600          600          600 -0.040597128    16796.835 0.00013373488 
  530000    41.646277 -0.029201777    160.14053    306.99331          600          600          600 -0.0045644181    17027.935 0.00013373488 
  531000    22.812684 -0.0071235214    162.17334    310.89026          600          600          600 0.0049538493    16532.534 0.00013373488 
  532000    39.563771 -0.0046251508    152.31331    291.98834          600          600          600 -0.028523142    17201.332 0.00013373488 
  533000     38.14687 0.0075269472    156.68713    300.37306          600          600          600 -0.013985951    17512.459 0.00013373488 
  534000    24.012986 -0.00061211539    157.96144    302.81593          600          600          600   0.01303161    17112.205 0.00013373488 
  535000    19.169722  0.020357432    168.39736    322.82185          600          600          600  0.042839894    16943.944 0.00013373488 
  536000    28.873692  0.019229764    157.80358    302.51332          600          600          600  -0.02191797    16753.828 0.00013373488 
  537000    33.550617 -0.0097372716    152.07827    291.53776          600          600          600 -0.0038203114    16504.366 0.00013373488 
  538000    31.996587  0.014825988    155.42327    297.95021          600          600          600  0.002387054    17660.376 0.00013373488 
  539000    24.878723  0.038009579    168.43576    322.89547          600          600          600  0.039163623    17009.981 0.00013373488 
  540000    26.141642  0.030085927    152.54852    292.43923          600          600          600  0.029533072    16150.636 0.00013373488 
  541000    28.626185 0.0031443222    158.56003    303.96346          600          600          600 -0.0009566551    16123.319 0.00013373488 
  542000    37.277627  0.002797232    176.06165     337.5145          600          600          600  0.017282008    16897.322 0.00013373488 
  543000    24.638509 0.00069982798    150.79954    289.08641          600          600          600 -0.0012985311    16049.776 0.00013373488 
  544000    24.542964 -0.029258219    139.53066    267.48369          600          600          600 -0.034331181    15323.114 0.00013373488 
  545000    27.600093 0.0057059602    154.43273    296.05131          600          600          600  0.023732118    14406.534 0.00013373488 
[...]
 4869000    31.002139  0.010115027    155.68686    298.45551          600          600          600  0.037825376    16988.003 0.00013373488 
 4870000    22.833045  0.019972198    172.62146    330.91955          600          600          600 -0.0046449605    15621.593 0.00013373488 
 4871000    31.505246 -0.010458885    145.96101    279.81083          600          600          600  0.014711556    14520.096 0.00013373488 
 4872000    21.236935 -0.0093732294    158.36494    303.58947          600          600          600 -0.012154287    14903.596 0.00013373488 
 4873000    28.607434 -0.002201446    154.92928    297.00322          600          600          600 -0.042424279    15506.777 0.00013373488 
 4874000    22.631366 0.0054868517    150.93835     289.3525          600          600          600  0.022877719    14866.565 0.00013373488 
 4875000    21.844295 -0.018093909    160.66642    308.00145          600          600          600 -0.003614669    16072.532 0.00013373488 
 4876000    26.511625 0.0029420686    176.49878    338.35248          600          600          600 -0.0028687354    16100.728 0.00013373488 
 4877000    24.858498 -0.0015889084    158.04668    302.97935          600          600          600 0.0026019439    15734.875 0.00013373488 
 4878000    19.756556 0.0032987982    158.70041    304.23257          600          600          600 -0.00025622499    14575.347 0.00013373488 
 4879000    27.300191  -0.02337909      154.408    296.00391          600          600          600 -0.035660365    12700.506 0.00013373488 
 4880000    36.537935 -0.022573372    140.81618    269.94805          600          600          600 -0.030873135    14289.816 0.00013373488 
 4881000    34.596534  0.042520922    156.54177     300.0944          600          600          600  0.045497719    15017.684 0.00013373488 
 4882000    24.319314  0.010405806    161.00656    308.65351          600          600          600  0.027452524    15295.677 0.00013373488 
 4883000     24.48547  0.014543958    149.31811    286.24647          600          600          600 0.0095574594    15443.059 0.00013373488 
 4884000    43.173662 -0.0049056441    142.12565    272.45835          600          600          600 -0.020086803    16384.064 0.00013373488 
 4885000    27.152974 -0.0068444352     146.2009     280.2707          600          600          600  0.017150329    11754.183 0.00013373488 
 4886000    32.468095 -0.023651021    161.29644    309.20921          600          600          600  0.015053611    15199.177 0.00013373488 
 4887000    22.186632  -0.02510419    143.33115    274.76931          600          600          600 -0.020841794    14187.057 0.00013373488 
 4888000    26.540093 -0.0010725923    148.94443    285.53011          600          600          600 -0.0041503786    12985.823 0.00013373488 
 4889000    28.252027 -0.011974877    158.39211    303.64154          600          600          600  0.017592149    14565.123 0.00013373488 
 4890000    23.479708  0.010890145     161.1317    308.89341          600          600          600 -0.012298609    13284.465 0.00013373488 
 4891000    32.672584 -0.0050753473    153.20022    293.68856          600          600          600   0.01281823    14992.508 0.00013373488 
 4892000    29.965543 0.0005402459    153.34193    293.96023          600          600          600 -0.012083831     14247.44 0.00013373488 
 4893000    29.755505  0.014555916    165.76651    317.77845          600          600          600  0.033626678    16611.565 0.00013373488 
 4894000    27.195257 -0.0066234739    158.65841    304.15205          600          600          600   0.02227472    17095.814 0.00013373488 
 4895000    34.690239 0.0067003958    150.04355    287.63716          600          600          600 0.0043240956    16226.866 0.00013373488 
 4896000    33.754256  0.010488406    150.50425    288.52033          600          600          600 -0.0067872332    15759.706 0.00013373488 
 4897000    35.619128 0.0087009736    164.38308    315.12639          600          600          600 -0.0053029175    15490.226 0.00013373488 
 4898000    28.543036 -0.0080040816    151.17598    289.80805          600          600          600 -0.0021613721    16523.416 0.00013373488 
 4899000    26.477274  0.024563951    150.54772    288.60366          600          600          600  0.021544962    16039.281 0.00013373488 
 4900000    35.227292 -0.0090062491    161.50823    309.61523          600          600          600 -0.032463356    16010.749 0.00013373488 
 4901000    36.957727  0.020228821    156.65793    300.31709          600          600          600 0.0010264933    15926.366 0.00013373488 
 4902000    31.620709 0.0092588592    160.76522    308.19086          600          600          600  0.011452878    14669.194 0.00013373488 
 4903000    31.525038   0.02301778    148.43901    284.56122          600          600          600  0.044203531     16207.24 0.00013373488 
 4904000    39.070884 0.0018860081    150.57919    288.66398          600          600          600 -0.011014677    15949.683 0.00013373488 
 4905000    28.393775 0.0060968648    159.80361    306.34744          600          600          600 0.0096607516    14959.302 0.00013373488 
 4906000    35.417206 -0.0099825838    164.58291    315.50946          600          600          600 -0.016482578    14997.922 0.00013373488 
 4907000    33.897863  0.012922303     172.3426    330.38497          600          600          600 -0.0048612376     14841.63 0.00013373488 
 4908000     34.51178 -0.020505445    157.14149    301.24408          600          600          600 -0.033325627    15298.968 0.00013373488 
 4909000      26.5346  0.025598535    174.36603    334.26394          600          600          600  0.028455476    14886.933 0.00013373488 
 4910000    15.753526 -0.008876257    166.72182     319.6098          600          600          600 -0.034562164    14692.884 0.00013373488 
 4911000    11.385069  0.012151061    150.51549    288.54187          600          600          600  0.025064886    13966.488 0.00013373488 
 4912000     22.62187  0.011506791    148.20564    284.11384          600          600          600 -0.0038884566    14153.879 0.00013373488 
 4913000    21.049019 -0.028907884    146.14694    280.16726          600          600          600 -0.024202052    13763.143 0.00013373488 
 4914000      31.2567  0.030552554    151.85581    291.11131          600          600          600  0.007790522    13171.411 0.00013373488 
 4915000    24.427991 0.0068865022    153.95973    295.14457          600          600          600 -0.022500605     12859.06 0.00013373488 
 4916000    48.806541  -0.02117274    147.54532    282.84798          600          600          600 -0.0065317452    14130.276 0.00013373488 
 4917000    28.642014 0.0016554517    163.64417    313.70986          600          600          600  0.020479066    13964.349 0.00013373488 
 4918000    12.396872 -0.0048431022    167.64065    321.37122          600          600          600  0.013822126    13575.161 0.00013373488 
 4919000    31.479567  0.019345576    158.01423    302.91713          600          600          600 -0.0022817151     13315.42 0.00013373488 
 4920000     37.10083 -0.040316776    162.32738    311.18555          600          600          600 -0.064103069    13035.586 0.00013373488 
 4921000    24.401254 0.0051556541    164.79342      315.913          600          600          600 -0.0052669397    12503.887 0.00013373488 
 4922000     27.49025 -0.0090801653    180.86684    346.72615          600          600          600 -0.0073940513    13004.263 0.00013373488 
 4923000    22.817646  0.029105103    170.90183    327.62299          600          600          600  0.018558068    13359.869 0.00013373488 
 4924000    28.576916 0.0073778877    149.95964    287.47629          600          600          600  0.029938188    13624.328 0.00013373488 
 4925000    27.027834  0.005624461    156.75721    300.50741          600          600          600 -0.024462442    14151.683 0.00013373488 
 4926000    26.040471 -0.024144823    146.84939    281.51388          600          600          600 -0.029920378    14440.262 0.00013373488 
 4927000    24.951286  0.041619195    143.10789    274.34133          600          600          600  0.036146611    14884.027 0.00013373488 
 4928000    25.822771  0.015720993    157.00225    300.97715          600          600          600 -0.0095766497    15589.426 0.00013373488 
 4929000     33.62688 -0.0039807427    178.05184    341.32972          600          600          600  0.038529629    15358.406 0.00013373488 
 4930000    20.862031 -0.0093932038    136.85501    262.35439          600          600          600 -0.025611156    15747.754 0.00013373488 
 4931000    34.523946 0.0021646679    152.40255    292.15941          600          600          600 -0.0032814974    14814.842 0.00013373488 
 4932000    23.281097  0.014550748    148.09174    283.89549          600          600          600  0.014132199    14792.219 0.00013373488 
 4933000    22.142571  0.010766899    150.62276    288.74752          600          600          600  0.024448246    15529.685 0.00013373488 
 4934000    31.251106 0.00063630056    159.42143    305.61478          600          600          600 0.0083966896    15109.382 0.00013373488 
 4935000    23.021441   0.01429762    151.32287    290.08965          600          600          600  0.038126445    14851.773 0.00013373488 
 4936000    22.130966  0.015912981    160.23637    307.17705          600          600          600 -0.0067354907    14784.137 0.00013373488 
 4937000    27.586246 -0.018152053    142.21197    272.62382          600          600          600 -0.022060802    15132.932 0.00013373488 
 4938000    28.066131 0.0084435046    158.03803    302.96277          600          600          600  0.058605925    16497.874 0.00013373488 
 4939000    24.256808  0.006664997    164.51482    315.37894          600          600          600  0.021682893    16849.196 0.00013373488 
 4940000    34.121376 0.0018385097    150.42322      288.365          600          600          600   0.02839179    17276.222 0.00013373488 
 4941000    24.193338  0.035649594     153.0921    293.48129          600          600          600  0.053864182    16744.263 0.00013373488 
 4942000    26.784905 0.00015600289    171.86519    329.46977          600          600          600  0.018497496    17132.685 0.00013373488 
 4943000    32.930107  0.020558251    157.68562    302.28719          600          600          600 -0.0047559872     17346.96 0.00013373488 
 4944000    31.595555 0.0077161639    165.85239    317.94308          600          600          600 -0.0061597106    17196.254 0.00013373488 
 4945000    29.507736 -0.0072579455    163.97105     314.3365          600          600          600  0.025718366    15351.324 0.00013373488 
 4946000    36.133932 -0.011314208    162.55105    311.61434          600          600          600 -0.007516417    16148.584 0.00013373488 
 4947000    35.200196  0.015739886    167.50508    321.11134          600          600          600 -0.023301085    16813.533 0.00013373488 
 4948000    37.093737 -0.019604231    145.65336    279.22105          600          600          600 -0.0072354423    16610.973 0.00013373488 
 4949000    28.648412  0.012174626    159.88637    306.50607          600          600          600  0.012333909    17440.151 0.00013373488 
 4950000    28.802278  0.034479358    152.54844    292.43909          600          600          600   0.03008442    17165.008 0.00013373488 
 4951000    29.338837 -0.006765521    145.92369    279.73928          600          600          600 -0.0063952845    16929.377 0.00013373488 
 4952000    31.324075 -0.036424532    184.96805    354.58827          600          600          600 -0.026376784    16218.207 0.00013373488 
 4953000    20.782784  0.015372472    168.38416    322.79655          600          600          600  0.013920453    15464.582 0.00013373488 
 4954000     26.64795  0.027811285    152.82407    292.96747          600          600          600  0.031019395    14762.127 0.00013373488 
 4955000    18.326732 -0.010047405    155.56388    298.21975          600          600          600 -0.013589149    15852.328 0.00013373488 
 4956000    19.474471 -0.0035271057    147.58733    282.92851          600          600          600 0.0029998326    15734.934 0.00013373488 
 4957000    32.554505 0.0078695509    172.69879     331.0678          600          600          600  0.028626586    16518.015 0.00013373488 
 4958000    34.786021 -0.038329389    149.92801    287.41566          600          600          600 -0.042392008    15846.578 0.00013373488 
 4959000    31.413307 0.0091312439    170.64467       327.13          600          600          600  0.028969332    14812.854 0.00013373488 
 4960000    27.704413 0.0060152953     154.1491     295.5076          600          600          600  0.032374766    16073.025 0.00013373488 
 4961000    31.154041 -0.0066329657     174.2912    334.12049          600          600          600 -0.019772268    15242.038 0.00013373488 
 4962000    47.447718 -0.011939503    146.01118    279.90701          600          600          600  -0.03331489    14989.347 0.00013373488 
 4963000    22.320578 0.0056160753    144.34889    276.72035          600          600          600   -0.0107085    15354.415 0.00013373488 
 4964000    26.992381  0.019114937    162.33202    311.19444          600          600          600  0.067324556    13874.228 0.00013373488 
 4965000    28.960903  0.023976105    156.83573    300.65793          600          600          600  0.022000718    12138.579 0.00013373488 
 4966000    35.595198 -0.038807664    158.61205    304.06318          600          600          600 -0.051847023    10906.903 0.00013373488 
 4967000    32.942253 0.0060944132    159.69696    306.14297          600          600          600 -0.018477043    11809.851 0.00013373488 
 4968000    24.445536  0.017303016    165.99051    318.20786          600          600          600  0.020600572    13354.169 0.00013373488 
 4969000    28.381492 0.0072161097    165.57069    317.40306          600          600          600  0.013741143     14625.46 0.00013373488 
 4970000     36.48333  0.010522844    156.02267    299.09927          600          600          600  0.025319078    15233.457 0.00013373488 
 4971000    25.327489 -0.038212278    170.25886    326.39039          600          600          600 -0.040204101    13516.235 0.00013373488 
 4972000    39.136811 -0.017345066    155.28021    297.67595          600          600          600 -0.027182093    12699.391 0.00013373488 
 4973000    26.945007 -0.012847496     154.3242    295.84326          600          600          600 0.00080521938    12809.695 0.00013373488 
 4974000    13.311803 -0.0056640381    164.56428    315.47375          600          600          600 0.0035641146    11956.431 0.00013373488 
 4975000    16.686624 -0.015979343    153.48457    294.23368          600          600          600  -0.01088135    11771.073 0.00013373488 
 4976000    14.040642  0.022437141    155.41245    297.92946          600          600          600  0.025079308    11902.348 0.00013373488 
 4977000     22.87891 -0.0096943446    150.59216    288.68886          600          600          600 -0.019504988    12221.059 0.00013373488 
 4978000     24.35914 0.0031864738    152.72534    292.77821          600          600          600 -0.0084330497    13476.541 0.00013373488 
 4979000    26.198418  0.033534582    148.69789    285.05748          600          600          600  0.057102298    13557.302 0.00013373488 
 4980000     29.53948 -0.038194807    157.76099    302.43167          600          600          600 -0.061467449    13713.822 0.00013373488 
 4981000    29.459095   0.01748704     176.8856    339.09401          600          600          600  0.021144003    13221.942 0.00013373488 
 4982000     25.06454  0.051286026    174.18016    333.90763          600          600          600  0.046254937    13238.342 0.00013373488 
 4983000    33.783022 -0.0021091345    152.39665     292.1481          600          600          600 -0.031556918    13367.916 0.00013373488 
 4984000    27.666603 0.0089981094    148.41695    284.51892          600          600          600  0.016932771    14530.257 0.00013373488 
 4985000    32.581139 0.0060019514    163.61507     313.6541          600          600          600  0.011745477     14837.43 0.00013373488 
 4986000    32.002849 0.0051988641    163.35424    313.15407          600          600          600  0.037105414    14531.717 0.00013373488 
 4987000    33.009717  0.025805066    145.77372    279.45179          600          600          600  0.068898198    14897.614 0.00013373488 
 4988000    23.882905  0.019022044    151.84531    291.09117          600          600          600   0.02361093    15049.584 0.00013373488 
 4989000    12.733633 0.0040534751    148.57565    284.82315          600          600          600  0.015684823    15443.742 0.00013373488 
 4990000    29.418604 0.0058592146    148.49674    284.67188          600          600          600 -0.00097791987    15631.374 0.00013373488 
 4991000    37.406531 -0.012206472    170.67345    327.18518          600          600          600 -0.0067931331    15353.459 0.00013373488 
 4992000    31.613429  0.033305573     161.5536     309.7022          600          600          600  0.022627672    16415.484 0.00013373488 
 4993000      31.4631 0.0084379395    134.77469    258.36637          600          600          600  0.028356208    17009.429 0.00013373488 
 4994000    31.240144  0.019768512    151.00381      289.478          600          600          600  0.014692965    16319.551 0.00013373488 
 4995000    22.217014  0.017294995    158.93343    304.67927          600          600          600 0.0053293823    16498.134 0.00013373488 
 4996000    29.384494 -0.0062931303    159.27001    305.32451          600          600          600  -0.01902217    16483.675 0.00013373488 
 4997000    31.204142 0.0047327327    158.89556    304.60666          600          600          600  0.040921502    17711.385 0.00013373488 
 4998000     31.12231  -0.00654747    161.19103    309.00714          600          600          600  -0.00767895     17075.63 0.00013373488 
 4999000    16.817289  0.031558417    151.32846    290.10036          600          600          600  0.033949263    15940.045 0.00013373488 
 5000000    33.825506 0.0095739179    144.93221    277.83859          600          600          600 -0.0041369683    15439.023 0.00013373488 
Loop time of 328.855 on 1 procs for 5000000 steps with 176 atoms

Performance: 13136.479 ns/day, 0.002 hours/ns, 15204.259 timesteps/s
99.9% CPU use with 1 MPI tasks x no OpenMP threads

MPI task timing breakdown:
Section |  min time  |  avg time  |  max time  |%varavg| %total
---------------------------------------------------------------
Pair    | 200.49     | 200.49     | 200.49     |   0.0 | 60.97
Bond    | 8.6035     | 8.6035     | 8.6035     |   0.0 |  2.62
Neigh   | 58.552     | 58.552     | 58.552     |   0.0 | 17.80
Comm    | 4.5708     | 4.5708     | 4.5708     |   0.0 |  1.39
Output  | 0.50408    | 0.50408    | 0.50408    |   0.0 |  0.15
Modify  | 40.598     | 40.598     | 40.598     |   0.0 | 12.35
Other   |            | 15.54      |            |       |  4.72

Nlocal:        176.000 ave         176 max         176 min
Histogram: 1 0 0 0 0 0 0 0 0 0
Nghost:        91.0000 ave          91 max          91 min
Histogram: 1 0 0 0 0 0 0 0 0 0
Neighs:        2247.00 ave        2247 max        2247 min
Histogram: 1 0 0 0 0 0 0 0 0 0

Total # of neighbors = 2247
Ave neighs/atom = 12.767045
Ave special neighs/atom = 1.9886364
Neighbor list builds = 139689
Dangerous builds = 54
Total wall time: 0:05:28
