LAMMPS data file for IDP

176 atoms
175 bonds

40 atom types
1 bond types

-300.00000   300.00000  xlo xhi
-300.00000   300.00000  ylo yhi
-300.00000   300.00000  zlo zhi

Masses

   1 131.199997
   2 57.049999
   3 128.199997
   4 101.099998
   5 156.199997
   6 71.080002
   7 115.099998
   8 129.100006
   9 163.199997
   10 99.070000
   11 113.199997
   12 128.100006
   13 186.199997
   14 147.199997
   15 87.080002
   16 137.100006
   17 114.099998
   18 97.120003
   19 103.099998
   20 113.199997
   21 131.199997
   22 57.049999
   23 128.199997
   24 101.099998
   25 156.199997
   26 71.080002
   27 115.099998
   28 129.100006
   29 163.199997
   30 99.070000
   31 113.199997
   32 128.100006
   33 186.199997
   34 147.199997
   35 87.080002
   36 137.100006
   37 114.099998
   38 97.120003
   39 103.099998
   40 113.199997

Atoms

1 1 2  0.000000 6.000000  0.000000  0.000000
2 1 19  0.000000 12.000000  0.000000  0.000000
3 1 17  0.000000 18.000000  0.000000  0.000000
4 1 14  0.000000 24.000000  0.000000  0.000000
5 1 17  0.000000 30.000000  0.000000  0.000000
6 1 4  0.000000 36.000000  0.000000  0.000000
7 1 18  0.000000 42.000000  0.000000  0.000000
8 1 12  0.000000 48.000000  0.000000  0.000000
9 1 12  0.000000 54.000000  0.000000  0.000000
10 1 17  0.000000 60.000000  0.000000  0.000000
11 1 3  1.000000 66.000000  0.000000  0.000000
12 1 4  0.000000 72.000000  0.000000  0.000000
13 1 18  0.000000 78.000000  0.000000  0.000000
14 1 14  0.000000 84.000000  0.000000  0.000000
15 1 15  0.000000 90.000000  0.000000  0.000000
16 1 14  0.000000 96.000000  0.000000  0.000000
17 1 2  0.000000 102.000000  0.000000  0.000000
18 1 4  0.000000 108.000000  0.000000  0.000000
19 1 6  0.000000 114.000000  0.000000  0.000000
20 1 17  0.000000 120.000000  0.000000  0.000000
21 1 17  0.000000 126.000000  0.000000  0.000000
22 1 17  0.000000 132.000000  0.000000  0.000000
23 1 15  0.000000 138.000000  0.000000  0.000000
24 1 17  0.000000 144.000000  0.000000  0.000000
25 1 4  0.000000 150.000000  0.000000  0.000000
26 1 4  0.000000 156.000000  0.000000  0.000000
27 1 17  0.000000 162.000000  0.000000  0.000000
28 1 12  0.000000 168.000000  0.000000  0.000000
29 1 17  0.000000 174.000000  0.000000  0.000000
30 1 15  0.000000 180.000000  0.000000  0.000000
31 1 15  0.000000 186.000000  0.000000  0.000000
32 1 4  0.000000 192.000000  0.000000  0.000000
33 1 2  0.000000 198.000000  0.000000  0.000000
34 1 6  0.000000 204.000000  0.000000  0.000000
35 1 2  0.000000 210.000000  0.000000  0.000000
36 1 6  0.000000 216.000000  0.000000  0.000000
37 1 14  0.000000 222.000000  0.000000  0.000000
38 1 2  0.000000 228.000000  0.000000  0.000000
39 1 4  0.000000 234.000000  0.000000  0.000000
40 1 2  0.000000 240.000000  0.000000  0.000000
41 1 12  0.000000 246.000000  0.000000  0.000000
42 1 15  0.000000 252.000000  0.000000  0.000000
43 1 4  0.000000 258.000000  0.000000  0.000000
44 1 14  0.000000 264.000000  0.000000  0.000000
45 1 2  0.000000 270.000000  0.000000  0.000000
46 1 14  0.000000 276.000000  0.000000  0.000000
47 1 17  0.000000 282.000000  0.000000  0.000000
48 1 17  0.000000 288.000000  0.000000  0.000000
49 1 15  0.000000 294.000000  0.000000  0.000000
50 1 6  0.000000 300.000000  0.000000  0.000000
51 1 18  0.000000 300.000000  6.000000  0.000000
52 1 17  0.000000 300.000000  12.000000  0.000000
53 1 17  0.000000 300.000000  18.000000  0.000000
54 1 4  0.000000 300.000000  24.000000  0.000000
55 1 17  0.000000 300.000000  30.000000  0.000000
56 1 17  0.000000 300.000000  36.000000  0.000000
57 1 6  0.000000 300.000000  42.000000  0.000000
58 1 17  0.000000 300.000000  48.000000  0.000000
59 1 15  0.000000 300.000000  54.000000  0.000000
60 1 15  0.000000 300.000000  60.000000  0.000000
61 1 20  0.000000 300.000000  66.000000  0.000000
62 1 4  0.000000 300.000000  72.000000  0.000000
63 1 18  0.000000 300.000000  78.000000  0.000000
64 1 6  0.000000 300.000000  84.000000  0.000000
65 1 14  0.000000 300.000000  90.000000  0.000000
66 1 2  0.000000 300.000000  96.000000  0.000000
67 1 15  0.000000 300.000000  102.000000  0.000000
68 1 17  0.000000 300.000000  108.000000  0.000000
69 1 17  0.000000 300.000000  114.000000  0.000000
70 1 4  0.000000 300.000000  120.000000  0.000000
71 1 2  0.000000 300.000000  126.000000  0.000000
72 1 17  0.000000 300.000000  132.000000  0.000000
73 1 4  0.000000 300.000000  138.000000  0.000000
74 1 6  0.000000 300.000000  144.000000  0.000000
75 1 14  0.000000 300.000000  150.000000  0.000000
76 1 2  0.000000 300.000000  156.000000  0.000000
77 1 17  0.000000 300.000000  162.000000  0.000000
78 1 15  0.000000 300.000000  168.000000  0.000000
79 1 17  0.000000 300.000000  174.000000  0.000000
80 1 18  0.000000 300.000000  180.000000  0.000000
81 1 4  0.000000 300.000000  186.000000  0.000000
82 1 15  0.000000 300.000000  192.000000  0.000000
83 1 17  0.000000 300.000000  198.000000  0.000000
84 1 10  0.000000 300.000000  204.000000  0.000000
85 1 14  0.000000 300.000000  210.000000  0.000000
86 1 2  0.000000 300.000000  216.000000  0.000000
87 1 15  0.000000 300.000000  222.000000  0.000000
88 1 17  0.000000 300.000000  228.000000  0.000000
89 1 17  0.000000 300.000000  234.000000  0.000000
90 1 15  0.000000 300.000000  240.000000  0.000000
91 1 4  0.000000 300.000000  246.000000  0.000000
92 1 4  0.000000 300.000000  252.000000  0.000000
93 1 17  0.000000 300.000000  258.000000  0.000000
94 1 4  0.000000 300.000000  264.000000  0.000000
95 1 14  0.000000 300.000000  270.000000  0.000000
96 1 2  0.000000 300.000000  276.000000  0.000000
97 1 15  0.000000 300.000000  282.000000  0.000000
98 1 17  0.000000 300.000000  288.000000  0.000000
99 1 15  0.000000 300.000000  294.000000  0.000000
100 1 6  0.000000 300.000000  300.000000  0.000000
101 1 2  0.000000 300.000000  300.000000  6.000000
102 1 4  0.000000 300.000000  300.000000  12.000000
103 1 15  0.000000 300.000000  300.000000  18.000000
104 1 11  0.000000 300.000000  300.000000  24.000000
105 1 14  0.000000 300.000000  300.000000  30.000000
106 1 2  0.000000 300.000000  300.000000  36.000000
107 1 15  0.000000 300.000000  300.000000  42.000000
108 1 15  0.000000 300.000000  300.000000  48.000000
109 1 15  0.000000 300.000000  300.000000  54.000000
110 1 6  0.000000 300.000000  300.000000  60.000000
111 1 12  0.000000 300.000000  300.000000  66.000000
112 1 12  0.000000 300.000000  300.000000  72.000000
113 1 4  0.000000 300.000000  300.000000  78.000000
114 1 3  1.000000 300.000000  300.000000  84.000000
115 1 15  0.000000 300.000000  300.000000  90.000000
116 1 17  0.000000 300.000000  300.000000  96.000000
117 1 2  0.000000 300.000000  300.000000  102.000000
118 1 4  0.000000 300.000000  300.000000  108.000000
119 1 6  0.000000 300.000000  300.000000  114.000000
120 1 2  0.000000 300.000000  300.000000  120.000000
121 1 2  0.000000 300.000000  300.000000  126.000000
122 1 17  0.000000 300.000000  300.000000  132.000000
123 1 4  0.000000 300.000000  300.000000  138.000000
124 1 14  0.000000 300.000000  300.000000  144.000000
125 1 2  0.000000 300.000000  300.000000  150.000000
126 1 15  0.000000 300.000000  300.000000  156.000000
127 1 15  0.000000 300.000000  300.000000  162.000000
128 1 15  0.000000 300.000000  300.000000  168.000000
129 1 11  0.000000 300.000000  300.000000  174.000000
130 1 14  0.000000 300.000000  300.000000  180.000000
131 1 17  0.000000 300.000000  300.000000  186.000000
132 1 17  0.000000 300.000000  300.000000  192.000000
133 1 15  0.000000 300.000000  300.000000  198.000000
134 1 4  0.000000 300.000000  300.000000  204.000000
135 1 17  0.000000 300.000000  300.000000  210.000000
136 1 15  0.000000 300.000000  300.000000  216.000000
137 1 17  0.000000 300.000000  300.000000  222.000000
138 1 4  0.000000 300.000000  300.000000  228.000000
139 1 4  0.000000 300.000000  300.000000  234.000000
140 1 3  1.000000 300.000000  300.000000  240.000000
141 1 18  0.000000 300.000000  300.000000  246.000000
142 1 6  0.000000 300.000000  300.000000  252.000000
143 1 14  0.000000 300.000000  300.000000  258.000000
144 1 2  0.000000 300.000000  300.000000  264.000000
145 1 2  0.000000 300.000000  300.000000  270.000000
146 1 11  0.000000 300.000000  300.000000  276.000000
147 1 17  0.000000 300.000000  300.000000  282.000000
148 1 14  0.000000 300.000000  300.000000  288.000000
149 1 2  0.000000 300.000000  300.000000  294.000000
150 1 2  0.000000 300.000000  300.000000  300.000000
151 1 2  0.000000 300.000000  300.000000  306.000000
152 1 17  0.000000 300.000000  300.000000  312.000000
153 1 17  0.000000 300.000000  300.000000  318.000000
154 1 4  0.000000 300.000000  300.000000  324.000000
155 1 4  0.000000 300.000000  300.000000  330.000000
156 1 18  0.000000 300.000000  300.000000  336.000000
157 1 15  0.000000 300.000000  300.000000  342.000000
158 1 15  0.000000 300.000000  300.000000  348.000000
159 1 4  0.000000 300.000000  300.000000  354.000000
160 1 2  0.000000 300.000000  300.000000  360.000000
161 1 17  0.000000 300.000000  300.000000  366.000000
162 1 6  0.000000 300.000000  300.000000  372.000000
163 1 17  0.000000 300.000000  300.000000  378.000000
164 1 4  0.000000 300.000000  300.000000  384.000000
165 1 15  0.000000 300.000000  300.000000  390.000000
166 1 17  0.000000 300.000000  300.000000  396.000000
167 1 17  0.000000 300.000000  300.000000  402.000000
168 1 11  0.000000 300.000000  300.000000  408.000000
169 1 14  0.000000 300.000000  300.000000  414.000000
170 1 2  0.000000 300.000000  300.000000  420.000000
171 1 6  0.000000 300.000000  300.000000  426.000000
172 1 4  0.000000 300.000000  300.000000  432.000000
173 1 6  0.000000 300.000000  300.000000  438.000000
174 1 17  0.000000 300.000000  300.000000  444.000000
175 1 6  0.000000 300.000000  300.000000  450.000000
176 1 17  0.000000 300.000000  300.000000  456.000000

Bonds

1 1 1 2
2 1 2 3
3 1 3 4
4 1 4 5
5 1 5 6
6 1 6 7
7 1 7 8
8 1 8 9
9 1 9 10
10 1 10 11
11 1 11 12
12 1 12 13
13 1 13 14
14 1 14 15
15 1 15 16
16 1 16 17
17 1 17 18
18 1 18 19
19 1 19 20
20 1 20 21
21 1 21 22
22 1 22 23
23 1 23 24
24 1 24 25
25 1 25 26
26 1 26 27
27 1 27 28
28 1 28 29
29 1 29 30
30 1 30 31
31 1 31 32
32 1 32 33
33 1 33 34
34 1 34 35
35 1 35 36
36 1 36 37
37 1 37 38
38 1 38 39
39 1 39 40
40 1 40 41
41 1 41 42
42 1 42 43
43 1 43 44
44 1 44 45
45 1 45 46
46 1 46 47
47 1 47 48
48 1 48 49
49 1 49 50
50 1 50 51
51 1 51 52
52 1 52 53
53 1 53 54
54 1 54 55
55 1 55 56
56 1 56 57
57 1 57 58
58 1 58 59
59 1 59 60
60 1 60 61
61 1 61 62
62 1 62 63
63 1 63 64
64 1 64 65
65 1 65 66
66 1 66 67
67 1 67 68
68 1 68 69
69 1 69 70
70 1 70 71
71 1 71 72
72 1 72 73
73 1 73 74
74 1 74 75
75 1 75 76
76 1 76 77
77 1 77 78
78 1 78 79
79 1 79 80
80 1 80 81
81 1 81 82
82 1 82 83
83 1 83 84
84 1 84 85
85 1 85 86
86 1 86 87
87 1 87 88
88 1 88 89
89 1 89 90
90 1 90 91
91 1 91 92
92 1 92 93
93 1 93 94
94 1 94 95
95 1 95 96
96 1 96 97
97 1 97 98
98 1 98 99
99 1 99 100
100 1 100 101
101 1 101 102
102 1 102 103
103 1 103 104
104 1 104 105
105 1 105 106
106 1 106 107
107 1 107 108
108 1 108 109
109 1 109 110
110 1 110 111
111 1 111 112
112 1 112 113
113 1 113 114
114 1 114 115
115 1 115 116
116 1 116 117
117 1 117 118
118 1 118 119
119 1 119 120
120 1 120 121
121 1 121 122
122 1 122 123
123 1 123 124
124 1 124 125
125 1 125 126
126 1 126 127
127 1 127 128
128 1 128 129
129 1 129 130
130 1 130 131
131 1 131 132
132 1 132 133
133 1 133 134
134 1 134 135
135 1 135 136
136 1 136 137
137 1 137 138
138 1 138 139
139 1 139 140
140 1 140 141
141 1 141 142
142 1 142 143
143 1 143 144
144 1 144 145
145 1 145 146
146 1 146 147
147 1 147 148
148 1 148 149
149 1 149 150
150 1 150 151
151 1 151 152
152 1 152 153
153 1 153 154
154 1 154 155
155 1 155 156
156 1 156 157
157 1 157 158
158 1 158 159
159 1 159 160
160 1 160 161
161 1 161 162
162 1 162 163
163 1 163 164
164 1 164 165
165 1 165 166
166 1 166 167
167 1 167 168
168 1 168 169
169 1 169 170
170 1 170 171
171 1 171 172
172 1 172 173
173 1 173 174
174 1 174 175
175 1 175 176
