ITEM: TIMESTEP
0
ITEM: NUMBER OF ATOMS
83
ITEM: BOX BOUNDS pp pp pp
-3.0000000000000000e+02 3.0000000000000000e+02
-3.0000000000000000e+02 3.0000000000000000e+02
-3.0000000000000000e+02 3.0000000000000000e+02
ITEM: ATOMS id mol type q xu yu zu
1 1 2 0 6 0 0
2 1 6 0 12 0 0
3 1 15 0 18 0 0
4 1 6 0 24 0 0
5 1 15 0 30 0 0
6 1 15 0 36 0 0
7 1 15 0 42 0 0
8 1 18 0 48 0 0
9 1 15 0 54 0 0
10 1 18 0 60 0 0
11 1 15 0 66 0 0
12 1 4 0 72 0 0
13 1 18 0 78 0 0
14 1 4 0 84 0 0
15 1 3 0.75 90 0 0
16 1 15 0 96 0 0
17 1 2 0 102 0 0
18 1 3 0.75 108 0 0
19 1 1 0 114 0 0
20 1 5 0.75 120 0 0
21 1 15 0 126 0 0
22 1 5 0.75 132 0 0
23 1 15 0 138 0 0
24 1 15 0 144 0 0
25 1 15 0 150 0 0
26 1 18 0 156 0 0
27 1 10 0 162 0 0
28 1 5 0.75 168 0 0
29 1 18 0 174 0 0
30 1 3 0.75 180 0 0
31 1 6 0 186 0 0
32 1 9 0 192 0 0
33 1 4 0 198 0 0
34 1 18 0 204 0 0
35 1 15 0 210 0 0
36 1 18 0 216 0 0
37 1 5 0.75 222 0 0
38 1 15 0 228 0 0
39 1 18 0 234 0 0
40 1 17 0 240 0 0
41 1 9 0 246 0 0
42 1 16 0.375 252 0 0
43 1 5 0.75 258 0 0
44 1 14 0 264 0 0
45 1 6 0 270 0 0
46 1 11 0 276 0 0
47 1 7 -0.75 282 0 0
48 1 15 0 288 0 0
49 1 18 0 294 0 0
50 1 18 0 300 0 0
51 1 12 0 300 6 0
52 1 15 0 300 12 0
53 1 18 0 300 18 0
54 1 5 0.75 300 24 0
55 1 5 0.75 300 30 0
56 1 15 0 300 36 0
57 1 15 0 300 42 0
58 1 17 0 300 48 0
59 1 15 0 300 54 0
60 1 15 0 300 60 0
61 1 20 0 300 66 0
62 1 4 0 300 72 0
63 1 3 0.75 300 78 0
64 1 3 0.75 300 84 0
65 1 2 0 300 90 0
66 1 15 0 300 96 0
67 1 5 0.75 300 102 0
68 1 5 0.75 300 108 0
69 1 15 0 300 114 0
70 1 15 0 300 120 0
71 1 2 0 300 126 0
72 1 15 0 300 132 0
73 1 15 0 300 138 0
74 1 18 0 300 144 0
75 1 4 0 300 150 0
76 1 5 0.75 300 156 0
77 1 16 0.375 300 162 0
78 1 4 0 300 168 0
79 1 4 0 300 174 0
80 1 5 0.75 300 180 0
81 1 10 0 300 186 0
82 1 19 0 300 192 0
83 1 10 0 300 198 0
ITEM: TIMESTEP
100000
ITEM: NUMBER OF ATOMS
83
ITEM: BOX BOUNDS pp pp pp
-3.0000000000000000e+02 3.0000000000000000e+02
-3.0000000000000000e+02 3.0000000000000000e+02
-3.0000000000000000e+02 3.0000000000000000e+02
ITEM: ATOMS id mol type q xu yu zu
1 1 2 0 185.403 24.1634 14.0904
2 1 6 0 183.895 26.1587 16.9889
3 1 15 0 183.378 30.2835 16.7158
4 1 6 0 187.18 31.5917 15.8668
5 1 15 0 189.593 33.1085 13.5238
6 1 15 0 188.645 36.881 14.1989
7 1 15 0 188.692 36.979 17.8722
8 1 18 0 187.587 40.1935 19.5721
9 1 15 0 187.552 42.4614 22.3555
10 1 18 0 186.602 46.2678 22.8904
11 1 15 0 186.568 47.3194 19.3677
12 1 4 0 184.881 47.7522 16.0121
13 1 18 0 183.645 48.8823 12.7125
14 1 4 0 184.028 51.067 9.55653
15 1 3 0.75 184.948 51.8992 5.96099
16 1 15 0 184.773 55.7714 5.12551
17 1 2 0 187.076 57.4903 7.62264
18 1 3 0.75 188.129 55.7268 11.4793
19 1 1 0 190.185 52.6325 10.312
20 1 5 0.75 192.98 50.167 10.9111
21 1 15 0 196.149 51.3205 9.40589
22 1 5 0.75 198.063 54.7439 8.83401
23 1 15 0 198.365 58.4635 9.88755
24 1 15 0 197.428 59.9145 13.2162
25 1 15 0 194.478 58.3321 14.7741
26 1 18 0 192.271 55.6177 16.2513
27 1 10 0 191.692 51.9857 17.5662
28 1 5 0.75 193.519 49.0318 18.8858
29 1 18 0 195.914 46.5475 20.761
30 1 3 0.75 199.224 46.3156 19.1907
31 1 6 0 199.226 46.2711 15.6198
32 1 9 0 200.873 48.5389 12.7297
33 1 4 0 202.652 46.2617 10.1648
34 1 18 0 204.423 47.1788 6.58328
35 1 15 0 201.442 47.5992 4.04694
36 1 18 0 201.95 51.1933 2.01226
37 1 5 0.75 204.657 51.4672 -0.859006
38 1 15 0 206.3 49.8109 -3.80145
39 1 18 0 208.241 51.9672 -6.30772
40 1 17 0 209.164 55.3824 -5.58423
41 1 9 0 210.869 58.747 -6.10422
42 1 16 0.375 210.489 61.0865 -8.62067
43 1 5 0.75 208.569 63.0845 -11.0449
44 1 14 0 207.6 64.1824 -14.4821
45 1 6 0 211.042 64.1511 -16.3491
46 1 11 0 212.465 65.2791 -19.4893
47 1 7 -0.75 211.681 62.1753 -21.1429
48 1 15 0 208.395 60.2757 -21.5912
49 1 18 0 207.381 56.9547 -19.6259
50 1 18 0 210.14 54.4969 -19.2694
51 1 12 0 209.996 52.4675 -22.5981
52 1 15 0 210.525 48.4582 -23.1805
53 1 18 0 213.868 46.8573 -21.9982
54 1 5 0.75 216.473 45.8297 -19.2363
55 1 5 0.75 218.949 47.7516 -16.7872
56 1 15 0 220.802 48.5735 -13.4524
57 1 15 0 219.202 48.7508 -9.6465
58 1 17 0 220.217 47.8999 -5.89167
59 1 15 0 222.993 50.3462 -5.60481
60 1 15 0 220.821 53.642 -6.49791
61 1 20 0 222.024 55.3816 -3.2518
62 1 4 0 225.16 54.9274 -0.938107
63 1 3 0.75 227.496 58.0123 -1.70388
64 1 3 0.75 226.55 61.2913 -3.74672
65 1 2 0 229.264 63.9213 -3.53597
66 1 15 0 230.515 67.4673 -3.45928
67 1 5 0.75 231.354 71.0935 -3.69285
68 1 5 0.75 233.147 72.26 -0.482592
69 1 15 0 232.51 75.6139 0.70081
70 1 15 0 228.74 76.5744 0.274886
71 1 2 0 226.005 74.1808 -0.163766
72 1 15 0 224.111 76.0015 -3.14405
73 1 15 0 226.908 75.3874 -6.02883
74 1 18 0 226.954 77.6243 -9.33589
75 1 4 0 226.702 80.4797 -11.7523
76 1 5 0.75 224.207 82.3261 -13.8639
77 1 16 0.375 224.421 86.2154 -12.8699
78 1 4 0 222.571 89.3934 -13.6027
79 1 4 0 220.698 92.6076 -12.2373
80 1 5 0.75 217.679 94.585 -13.6015
81 1 10 0 214.078 95.3237 -14.1679
82 1 19 0 213.894 97.9964 -17.0792
83 1 10 0 210.752 98.3723 -19.0785
ITEM: TIMESTEP
200000
ITEM: NUMBER OF ATOMS
83
ITEM: BOX BOUNDS pp pp pp
-3.0000000000000000e+02 3.0000000000000000e+02
-3.0000000000000000e+02 3.0000000000000000e+02
-3.0000000000000000e+02 3.0000000000000000e+02
ITEM: ATOMS id mol type q xu yu zu
1 1 2 0 185.842 57.1768 18.675
2 1 6 0 189.478 56.2782 18.4427
3 1 15 0 187.948 52.6661 18.2618
4 1 6 0 187.267 51.5737 14.7262
5 1 15 0 186.326 51.1784 11.083
6 1 15 0 188.509 50.2201 7.91568
7 1 15 0 192.335 50.0819 8.94692
8 1 18 0 193.942 47.1949 10.8569
9 1 15 0 194.537 43.6755 10.4946
10 1 18 0 192.46 41.8964 7.68725
11 1 15 0 190.283 38.5925 7.51641
12 1 4 0 190.9 38.027 11.2943
13 1 18 0 191.252 38.8424 15.1184
14 1 4 0 190.503 37.4935 18.1507
15 1 3 0.75 192.521 34.9061 20.3119
16 1 15 0 195.278 32.4493 19.3792
17 1 2 0 198.726 33.2914 19.929
18 1 3 0.75 201.992 31.9776 17.5152
19 1 1 0 200.378 30.5158 14.4886
20 1 5 0.75 196.748 31.4184 13.1276
21 1 15 0 193.698 29.549 14.3477
22 1 5 0.75 190.117 31.2641 14.7513
23 1 15 0 187.612 32.8767 12.4911
24 1 15 0 183.948 31.1829 11.508
25 1 15 0 180.723 33.6718 11.1411
26 1 18 0 177.044 33.2934 12.3241
27 1 10 0 175.623 31.0678 10.1567
28 1 5 0.75 175.18 30.0814 6.42461
29 1 18 0 175.858 31.9566 3.25516
30 1 3 0.75 177.632 35.291 2.34189
31 1 6 0 177.227 39.1004 3.30162
32 1 9 0 174.453 39.5257 6.22909
33 1 4 0 176.143 40.5059 9.64782
34 1 18 0 173.339 40.1068 12.3442
35 1 15 0 174.26 39.4256 15.9445
36 1 18 0 177.643 40.1289 17.2536
37 1 5 0.75 177.513 43.1898 19.557
38 1 15 0 174.375 43.7551 22.2933
39 1 18 0 170.914 44.3549 23.8264
40 1 17 0 171.049 45.859 27.172
41 1 9 0 174.153 47.319 28.7814
42 1 16 0.375 177.651 48.3418 28.0632
43 1 5 0.75 180.423 50.2771 26.3052
44 1 14 0 181.464 51.7563 22.9038
45 1 6 0 178.158 53.6273 22.2732
46 1 11 0 175.528 51.9486 20.0635
47 1 7 -0.75 176.788 48.6407 18.6306
48 1 15 0 173.91 48.5044 16.4447
49 1 18 0 172.123 46.1698 13.8985
50 1 18 0 168.729 47.5456 13.1636
51 1 12 0 165.076 48.7518 11.7651
52 1 15 0 162.57 50.0033 9.65428
53 1 18 0 163.474 52.1714 6.88689
54 1 5 0.75 167.051 52.626 6.67686
55 1 5 0.75 168.657 55.8607 7.63371
56 1 15 0 168.089 59.0594 6.30623
57 1 15 0 167.17 62.1547 4.51356
58 1 17 0 167.556 63.1566 1.14722
59 1 15 0 171.341 63.5905 1.58817
60 1 15 0 172.15 62.5912 -1.84734
61 1 20 0 175.177 61.0486 -1.79788
62 1 4 0 177.049 64.421 -2.35448
63 1 3 0.75 179.099 67.283 -1.04524
64 1 3 0.75 181.629 69.3566 0.48666
65 1 2 0 183.171 69.0157 3.99962
66 1 15 0 180.131 67.2076 5.08975
67 1 5 0.75 176.568 66.8936 6.89595
68 1 5 0.75 173.507 68.4402 8.14617
69 1 15 0 170.258 66.9482 9.92646
70 1 15 0 166.434 67.4497 10.0037
71 1 2 0 165.324 68.4871 13.5673
72 1 15 0 167.975 69.833 16.3406
73 1 15 0 169.176 73.3336 17.6336
74 1 18 0 171.719 75.5723 15.4515
75 1 4 0 170.012 78.7805 14.8805
76 1 5 0.75 167.507 79.9193 11.9739
77 1 16 0.375 163.632 79.2161 12.9954
78 1 4 0 162.691 75.9667 14.6629
79 1 4 0 162.093 75.6197 18.3452
80 1 5 0.75 158.551 76.9563 18.6828
81 1 10 0 159.422 79.4806 21.3943
82 1 19 0 158.244 80.9682 24.5018
83 1 10 0 156.734 81.7182 28.0623
ITEM: TIMESTEP
300000
ITEM: NUMBER OF ATOMS
83
ITEM: BOX BOUNDS pp pp pp
-3.0000000000000000e+02 3.0000000000000000e+02
-3.0000000000000000e+02 3.0000000000000000e+02
-3.0000000000000000e+02 3.0000000000000000e+02
ITEM: ATOMS id mol type q xu yu zu
1 1 2 0 207.458 49.5544 -22.8036
2 1 6 0 209.687 47.3007 -24.8008
3 1 15 0 208.352 49.3273 -27.8627
4 1 6 0 206.603 46.5117 -30.1481
5 1 15 0 209.883 44.7726 -29.7524
6 1 15 0 210.607 41.6157 -27.4931
7 1 15 0 207.344 39.3358 -28.8494
8 1 18 0 206.919 37.284 -25.7774
9 1 15 0 209.086 34.3617 -27.1128
10 1 18 0 209.893 33.7124 -30.5679
11 1 15 0 209.711 30.1076 -31.8462
12 1 4 0 211.382 27.9322 -28.8547
13 1 18 0 213.415 24.4107 -28.5204
14 1 4 0 216.037 24.2528 -25.6578
15 1 3 0.75 216.173 26.6814 -22.8129
16 1 15 0 214.383 26.2367 -19.6728
17 1 2 0 212.784 28.359 -16.4196
18 1 3 0.75 215.841 28.9153 -14.3796
19 1 1 0 215.16 32.1461 -12.7381
20 1 5 0.75 215.206 36.2248 -12.192
21 1 15 0 214.823 35.7967 -8.52054
22 1 5 0.75 213.672 35.8995 -4.87298
23 1 15 0 210.283 37.7817 -5.72036
24 1 15 0 208.606 39.2596 -2.3695
25 1 15 0 209.315 41.2275 0.642094
26 1 18 0 206.506 42.3386 3.06307
27 1 10 0 203.716 44.8325 4.20655
28 1 5 0.75 200.033 45.1236 3.96868
29 1 18 0 197.683 47.6801 6.28234
30 1 3 0.75 193.768 47.2764 5.48562
31 1 6 0 190.775 47.8973 7.77867
32 1 9 0 188.176 46.5929 9.8173
33 1 4 0 188.982 43.167 10.7941
34 1 18 0 192.345 41.262 10.6864
35 1 15 0 195.421 42.9126 10.6873
36 1 18 0 194.237 45.6912 13.3604
37 1 5 0.75 193.132 49.2229 14.258
38 1 15 0 195.761 48.8638 16.7887
39 1 18 0 197.144 51.5779 18.9041
40 1 17 0 199.852 53.3856 16.8915
41 1 9 0 201.487 51.7335 14.0016
42 1 16 0.375 201.36 47.9686 14.4393
43 1 5 0.75 200.506 44.3287 15.4282
44 1 14 0 203.195 41.8164 14.0053
45 1 6 0 206.952 43.7237 14.4657
46 1 11 0 208.106 46.6651 12.0678
47 1 7 -0.75 208.164 49.0649 14.2864
48 1 15 0 211.585 50.3114 12.7985
49 1 18 0 212.45 52.9627 15.2233
50 1 18 0 212.853 51.5241 18.7423
51 1 12 0 213.397 50.9719 22.2648
52 1 15 0 217.184 51.0161 23.8976
53 1 18 0 219.222 53.9222 25.2406
54 1 5 0.75 222.837 54.2703 27.1073
55 1 5 0.75 226.439 55.5333 25.3977
56 1 15 0 229.746 53.986 24.7922
57 1 15 0 232.549 51.2485 25.9823
58 1 17 0 232.576 51.0603 29.5324
59 1 15 0 230.558 48.7724 31.8782
60 1 15 0 226.794 49.1513 33.2446
61 1 20 0 224.954 47.0052 35.821
62 1 4 0 224.562 43.7718 34.4338
63 1 3 0.75 221.471 42.4235 35.8925
64 1 3 0.75 222.435 39.22 34.0745
65 1 2 0 226.277 38.3285 34.9391
66 1 15 0 229.767 36.8354 35.1338
67 1 5 0.75 231.459 35.4097 38.04
68 1 5 0.75 233.742 32.3904 37.7028
69 1 15 0 231.898 29.79 35.3657
70 1 15 0 229.237 31.6843 32.925
71 1 2 0 226.319 32.7528 35.2521
72 1 15 0 223.568 32.4269 32.6864
73 1 15 0 225.261 30.2977 29.987
74 1 18 0 223.131 27.3634 29.0672
75 1 4 0 219.435 26.2416 28.3467
76 1 5 0.75 217.017 23.4175 28.8109
77 1 16 0.375 213.994 24.4622 26.6622
78 1 4 0 213.663 21.5118 24.1906
79 1 4 0 214.7 19.2016 21.2546
80 1 5 0.75 212.691 19.159 18.1775
81 1 10 0 213.931 22.2801 16.087
82 1 19 0 215.062 25.7808 17.0885
83 1 10 0 216.338 27.1833 14.0681
ITEM: TIMESTEP
400000
ITEM: NUMBER OF ATOMS
83
ITEM: BOX BOUNDS pp pp pp
-3.0000000000000000e+02 3.0000000000000000e+02
-3.0000000000000000e+02 3.0000000000000000e+02
-3.0000000000000000e+02 3.0000000000000000e+02
ITEM: ATOMS id mol type q xu yu zu
1 1 2 0 196.95 62.193 17.2787
2 1 6 0 197.441 62.8013 13.4232
3 1 15 0 200.316 63.6111 10.7567
4 1 6 0 202.057 61.6298 7.7305
5 1 15 0 198.489 59.7587 7.34294
6 1 15 0 195.135 60.2727 5.54776
7 1 15 0 194.633 58.9915 1.94974
8 1 18 0 194.698 61.7886 -0.544316
9 1 15 0 196.404 64.6705 0.901424
10 1 18 0 196.223 68.4966 1.34643
11 1 15 0 194.835 72.2839 0.838589
12 1 4 0 198.15 73.6573 -0.420454
13 1 18 0 201.368 72.5909 1.17535
14 1 4 0 202.904 69.4663 -0.126356
15 1 3 0.75 206.896 70.4756 0.458499
16 1 15 0 209.479 72.729 -1.02218
17 1 2 0 212.133 73.9058 -3.33844
18 1 3 0.75 215.346 75.955 -2.90524
19 1 1 0 217.939 73.0312 -4.07388
20 1 5 0.75 216.658 69.499 -3.44018
21 1 15 0 219.739 67.4114 -4.17399
22 1 5 0.75 223.374 66.9892 -5.07029
23 1 15 0 226.22 66.2343 -2.41324
24 1 15 0 225.82 62.5948 -1.93607
25 1 15 0 225.993 59.7102 0.18055
26 1 18 0 224.477 56.5373 1.53642
27 1 10 0 223.911 55.8918 -2.10508
28 1 5 0.75 226.296 53.6963 -4.15134
29 1 18 0 227.926 55.8431 -6.51182
30 1 3 0.75 225.697 58.817 -7.95644
31 1 6 0 228.223 61.3241 -9.80506
32 1 9 0 229.749 64.9828 -11.2426
33 1 4 0 226.481 64.7756 -13.5486
34 1 18 0 226.2 67.5564 -15.3187
35 1 15 0 226.379 70.2064 -12.5708
36 1 18 0 228.424 72.1417 -10.1902
37 1 5 0.75 231.638 71.8175 -7.42238
38 1 15 0 235.16 73.5422 -7.16146
39 1 18 0 236.814 74.7097 -10.4266
40 1 17 0 236.351 78.2725 -11.8944
41 1 9 0 235.392 80.4811 -8.64639
42 1 16 0.375 231.619 80.661 -8.15259
43 1 5 0.75 227.82 80.1429 -6.81036
44 1 14 0 226.133 77.2673 -5.43613
45 1 6 0 228.729 75.8806 -2.79197
46 1 11 0 231.243 76.2471 0.126173
47 1 7 -0.75 230.078 78.4495 2.96207
48 1 15 0 226.942 79.8158 4.66493
49 1 18 0 223.838 80.0257 2.10051
50 1 18 0 221.682 83.2013 3.59933
51 1 12 0 221.305 84.5965 6.99373
52 1 15 0 223.148 85.3053 10.0905
53 1 18 0 226.969 85.5017 9.53311
54 1 5 0.75 230.5 84.997 11.204
55 1 5 0.75 232.781 81.839 10.7046
56 1 15 0 231.484 78.3964 10.9209
57 1 15 0 231.529 75.8535 13.7489
58 1 17 0 233.412 72.687 15.0501
59 1 15 0 233.25 70.4586 11.7816
60 1 15 0 235.168 67.1742 12.9601
61 1 20 0 237.474 67.5783 16.0547
62 1 4 0 235.159 67.0779 19.2062
63 1 3 0.75 235.691 70.0634 21.5628
64 1 3 0.75 238.867 67.6447 23.6307
65 1 2 0 241.393 69.6592 21.6015
66 1 15 0 244.109 68.5125 23.781
67 1 5 0.75 245.522 65.2972 22.2137
68 1 5 0.75 249.107 64.672 21.0385
69 1 15 0 252.862 63.2589 22.0869
70 1 15 0 256.428 63.9833 23.525
71 1 2 0 257.007 60.4463 24.9434
72 1 15 0 257.783 59.2635 21.1198
73 1 15 0 259.455 57.0325 18.8202
74 1 18 0 262.325 57.7949 16.3447
75 1 4 0 262.724 61.3524 15.3888
76 1 5 0.75 264.163 62.5317 11.9841
77 1 16 0.375 267.623 62.6143 11.8404
78 1 4 0 271.281 61.7633 11.3022
79 1 4 0 271.31 59.0671 8.59109
80 1 5 0.75 270.066 57.6003 5.2098
81 1 10 0 266.931 55.6727 3.66084
82 1 19 0 266.445 53.0187 0.950183
83 1 10 0 269.73 52.1724 2.19079
ITEM: TIMESTEP
500000
ITEM: NUMBER OF ATOMS
83
ITEM: BOX BOUNDS pp pp pp
-3.0000000000000000e+02 3.0000000000000000e+02
-3.0000000000000000e+02 3.0000000000000000e+02
-3.0000000000000000e+02 3.0000000000000000e+02
ITEM: ATOMS id mol type q xu yu zu
1 1 2 0 178.591 67.0598 23.4246
2 1 6 0 181.948 65.4698 24.5224
3 1 15 0 184.539 63.228 22.5178
4 1 6 0 183.817 59.4798 21.5045
5 1 15 0 186.46 57.6316 23.0096
6 1 15 0 185.92 60.0189 25.9393
7 1 15 0 184.214 61.7621 28.89
8 1 18 0 184.152 59.9876 32.0471
9 1 15 0 186.156 57.5872 34.0935
10 1 18 0 185.805 58.21 37.7343
11 1 15 0 183.787 55.0572 39.0994
12 1 4 0 181.745 56.7265 42.0542
13 1 18 0 183.189 53.9466 44.4467
14 1 4 0 183.181 50.4814 44.2985
15 1 3 0.75 185.768 48.09 43.057
16 1 15 0 183.372 45.2611 42.4898
17 1 2 0 182.572 46.8231 39.1923
18 1 3 0.75 181.552 49.7826 36.9189
19 1 1 0 177.357 49.122 36.3618
20 1 5 0.75 175.822 51.9679 34.2177
21 1 15 0 178.288 54.3014 31.9396
22 1 5 0.75 180.794 55.0669 28.9298
23 1 15 0 182.449 51.2833 28.2132
24 1 15 0 184.639 51.1801 31.1912
25 1 15 0 186.707 48.1806 31.9639
26 1 18 0 189.889 49.7957 30.4031
27 1 10 0 191.163 45.8405 29.6731
28 1 5 0.75 192.792 45.9724 26.2137
29 1 18 0 190.771 43.9268 24.1959
30 1 3 0.75 191.137 44.1706 20.6707
31 1 6 0 194.855 43.4622 19.4966
32 1 9 0 197.383 42.1202 22.1969
33 1 4 0 200.398 40.6971 23.6107
34 1 18 0 203.031 38.0853 24.6018
35 1 15 0 205.736 39.8394 26.3033
36 1 18 0 208.48 38.8052 23.7526
37 1 5 0.75 207.126 40.2512 20.4939
38 1 15 0 205.31 37.7505 18.2369
39 1 18 0 202.163 36.9369 16.3284
40 1 17 0 200.414 34.3498 14.6635
41 1 9 0 197.987 31.3794 15.055
42 1 16 0.375 196.988 28.6589 11.8392
43 1 5 0.75 194.002 29.9047 9.98681
44 1 14 0 192.783 33.3598 8.6482
45 1 6 0 195.57 35.7316 9.11804
46 1 11 0 198.466 35.1668 6.84967
47 1 7 -0.75 199.685 36.7062 3.41491
48 1 15 0 202.284 38.9392 2.10911
49 1 18 0 204.86 40.9664 4.08136
50 1 18 0 207.496 38.4876 5.95994
51 1 12 0 207.651 38.0575 9.6555
52 1 15 0 209.525 41.1462 10.7556
53 1 18 0 213.271 39.7274 10.0862
54 1 5 0.75 214.531 36.8287 7.98709
55 1 5 0.75 216.657 36.3414 4.94892
56 1 15 0 216.353 39.4337 2.1424
57 1 15 0 217.027 42.606 4.40997
58 1 17 0 219.852 42.4837 7.14109
59 1 15 0 219.285 43.4069 10.6396
60 1 15 0 221.042 46.3104 13.1234
61 1 20 0 224.074 44.4371 14.6804
62 1 4 0 226.805 47.1315 14.3933
63 1 3 0.75 228.749 49.8956 12.5188
64 1 3 0.75 225.294 51.4345 11.7217
65 1 2 0 224.15 50.5621 8.20223
66 1 15 0 225.104 49.8441 4.31787
67 1 5 0.75 227.338 48.6676 1.45755
68 1 5 0.75 226.376 48.7728 -2.32027
69 1 15 0 226.853 47.918 -6.04548
70 1 15 0 229.592 49.9248 -8.27591
71 1 2 0 231.53 53.3399 -8.64831
72 1 15 0 232.764 54.2584 -11.7992
73 1 15 0 234.14 57.5492 -10.4044
74 1 18 0 235.096 60.9261 -12.4721
75 1 4 0 238.199 58.8494 -12.6798
76 1 5 0.75 238.481 56.2415 -15.0387
77 1 16 0.375 241.544 54.4114 -15.5983
78 1 4 0 241.943 50.8004 -15.074
79 1 4 0 246.15 49.9619 -14.9664
80 1 5 0.75 247.779 48.7588 -18.1739
81 1 10 0 247.227 51.4681 -20.3098
82 1 19 0 246.485 55.5446 -20.1335
83 1 10 0 243.609 54.75 -22.6886
ITEM: TIMESTEP
600000
ITEM: NUMBER OF ATOMS
83
ITEM: BOX BOUNDS pp pp pp
-3.0000000000000000e+02 3.0000000000000000e+02
-3.0000000000000000e+02 3.0000000000000000e+02
-3.0000000000000000e+02 3.0000000000000000e+02
ITEM: ATOMS id mol type q xu yu zu
1 1 2 0 140.909 66.374 26.34
2 1 6 0 143.538 68.9356 26.0794
3 1 15 0 146.686 70.414 24.4891
4 1 6 0 149.32 70.0283 27.1852
5 1 15 0 152.736 68.623 27.3599
6 1 15 0 154.921 68.1401 30.4301
7 1 15 0 155.739 71.8204 29.633
8 1 18 0 157.656 70.917 26.6419
9 1 15 0 156.082 68.8377 23.5561
10 1 18 0 154.189 65.9526 22.8669
11 1 15 0 154.646 64.1564 19.5208
12 1 4 0 158.613 63.1229 18.6284
13 1 18 0 160.538 61.0175 20.8539
14 1 4 0 159.059 61.2636 24.5335
15 1 3 0.75 162.186 60.5787 26.6567
16 1 15 0 164.584 59.7029 24.1271
17 1 2 0 164.201 56.0667 22.2477
18 1 3 0.75 167.406 54.9026 23.3688
19 1 1 0 169.854 57.9478 23.3433
20 1 5 0.75 169.138 59.2377 19.4498
21 1 15 0 165.495 60.1495 17.915
22 1 5 0.75 163.575 57.2762 16.5116
23 1 15 0 162.779 53.6306 16.7191
24 1 15 0 164.762 50.9067 18.7891
25 1 15 0 166.955 49.8374 16.18
26 1 18 0 170.084 47.7997 15.4372
27 1 10 0 170.577 48.6011 11.5748
28 1 5 0.75 169.833 48.7856 8.02265
29 1 18 0 172.778 47.2248 5.5293
30 1 3 0.75 175.133 44.8988 6.82692
31 1 6 0 173.811 42.2312 4.83288
32 1 9 0 172.765 39.2325 3.14639
33 1 4 0 173.646 36.0091 4.21099
34 1 18 0 173.948 33.7662 1.15017
35 1 15 0 175.33 30.6113 3.06807
36 1 18 0 172.733 28.4865 4.82301
37 1 5 0.75 169.281 29.9461 6.34418
38 1 15 0 164.968 30.0189 6.65035
39 1 18 0 164.313 31.4126 10.2172
40 1 17 0 163.78 34.9917 9.97785
41 1 9 0 164.014 36.1815 6.53923
42 1 16 0.375 166.282 35.4748 3.45654
43 1 5 0.75 166.149 35.6474 -0.127891
44 1 14 0 164.687 37.588 -2.93982
45 1 6 0 162.717 40.6187 -3.26021
46 1 11 0 162.894 44.1977 -2.89223
47 1 7 -0.75 161.538 45.5028 0.426142
48 1 15 0 163.044 46.8674 3.83389
49 1 18 0 161.842 49.1474 6.68895
50 1 18 0 163.552 50.685 9.69976
51 1 12 0 165.775 52.8184 11.8237
52 1 15 0 168.103 55.9282 12.3212
53 1 18 0 171.531 57.6207 11.0066
54 1 5 0.75 173.835 54.6334 10.2944
55 1 5 0.75 177.132 54.4124 12.1893
56 1 15 0 179.384 51.4811 11.1529
57 1 15 0 181.163 48.4948 9.49193
58 1 17 0 182.02 45.5648 7.3275
59 1 15 0 183.917 42.4576 6.28117
60 1 15 0 184.682 41.8294 2.60664
61 1 20 0 184.205 44.4291 0.266178
62 1 4 0 185.888 47.3958 -0.851347
63 1 3 0.75 189.789 47.2138 -1.17929
64 1 3 0.75 191.024 49.4692 -4.12881
65 1 2 0 193.953 50.128 -6.49246
66 1 15 0 197.327 48.4223 -6.87974
67 1 5 0.75 201.093 48.9792 -5.76253
68 1 5 0.75 204.825 48.4282 -6.37061
69 1 15 0 207.85 50.3682 -5.38487
70 1 15 0 210.083 48.718 -3.17703
71 1 2 0 210.234 46.0327 -0.980243
72 1 15 0 207.65 45.146 1.28308
73 1 15 0 206.075 48.4667 1.47566
74 1 18 0 206.8 52.1782 2.14558
75 1 4 0 208.926 55.2349 1.16828
76 1 5 0.75 209.273 56.4462 -2.37575
77 1 16 0.375 211.89 56.6879 -4.97274
78 1 4 0 216.116 55.9519 -5.33026
79 1 4 0 218.723 57.9889 -6.64274
80 1 5 0.75 222.223 58.8746 -6.7301
81 1 10 0 223.291 62.238 -4.97272
82 1 19 0 223.882 64.7901 -2.36343
83 1 10 0 224.755 68.5603 -1.87883
ITEM: TIMESTEP
700000
ITEM: NUMBER OF ATOMS
83
ITEM: BOX BOUNDS pp pp pp
-3.0000000000000000e+02 3.0000000000000000e+02
-3.0000000000000000e+02 3.0000000000000000e+02
-3.0000000000000000e+02 3.0000000000000000e+02
ITEM: ATOMS id mol type q xu yu zu
1 1 2 0 180.364 39.3616 55.4827
2 1 6 0 183.237 41.9121 56.2342
3 1 15 0 185.121 44.4242 54.0875
4 1 6 0 188.507 45.5835 53.9647
5 1 15 0 192.042 44.0202 55.4977
6 1 15 0 190.931 44.4843 59.1861
7 1 15 0 190.45 44.1244 62.9641
8 1 18 0 186.874 45.5737 63.3822
9 1 15 0 184.725 46.1104 60.0465
10 1 18 0 185.447 50.32 60.3126
11 1 15 0 182.578 52.6724 59.0493
12 1 4 0 182.456 54.8946 55.9809
13 1 18 0 184.152 58.1455 56.9428
14 1 4 0 183.288 61.3918 55.1613
15 1 3 0.75 180.226 61.846 52.6457
16 1 15 0 181.942 64.5748 50.3599
17 1 2 0 178.785 65.662 49.3817
18 1 3 0.75 177.01 62.9123 47.0309
19 1 1 0 177.925 61.5923 43.6967
20 1 5 0.75 178.627 60.412 40.0077
21 1 15 0 176.701 58.571 37.1659
22 1 5 0.75 174.381 57.9756 34.1018
23 1 15 0 177.55 57.9928 32.1298
24 1 15 0 180.58 55.945 32.9747
25 1 15 0 181.004 52.7118 30.9005
26 1 18 0 182.698 49.5523 29.2218
27 1 10 0 184.138 51.7505 26.8099
28 1 5 0.75 186.574 54.5746 25.3098
29 1 18 0 188.528 56.8148 22.6107
30 1 3 0.75 187.765 58.4907 19.4989
31 1 6 0 188.99 59.4954 15.9406
32 1 9 0 187.107 57.2595 13.4696
33 1 4 0 187.117 59.0644 10.0643
34 1 18 0 184.638 59.9615 7.45859
35 1 15 0 182.85 62.483 9.82693
36 1 18 0 180.209 63.3283 12.7552
37 1 5 0.75 177.721 60.2709 13.7434
38 1 15 0 177.191 61.0662 17.4141
39 1 18 0 175.666 58.3062 19.5019
40 1 17 0 176.356 56.4172 22.6229
41 1 9 0 178.443 55.0543 25.2326
42 1 16 0.375 180.869 57.783 26.4635
43 1 5 0.75 184.037 58.8884 28.69
44 1 14 0 185.841 61.9988 29.1504
45 1 6 0 188.986 63.5334 27.4627
46 1 11 0 190.13 63.9664 23.7257
47 1 7 -0.75 192.857 61.4751 22.2652
48 1 15 0 194.506 58.1929 20.5017
49 1 18 0 196.139 54.6942 19.7047
50 1 18 0 195.982 53.6315 16.2783
51 1 12 0 196.297 56.1416 13.5326
52 1 15 0 193.776 57.5388 11.2414
53 1 18 0 194.877 58.6991 7.98242
54 1 5 0.75 191.85 58.5126 5.46843
55 1 5 0.75 190.262 55.1301 4.85547
56 1 15 0 192.637 52.0962 4.80057
57 1 15 0 195.528 51.0288 2.48384
58 1 17 0 196.854 47.9337 1.24429
59 1 15 0 199.246 45.9823 -1.51971
60 1 15 0 201.775 45.6703 -4.68116
61 1 20 0 198.672 43.7642 -6.73807
62 1 4 0 198.333 41.4495 -3.79146
63 1 3 0.75 195.867 41.0703 -1.31977
64 1 3 0.75 195.422 40.2194 2.33552
65 1 2 0 198.728 42.1295 3.04007
66 1 15 0 201.228 40.3265 5.70623
67 1 5 0.75 204.92 41.3098 7.52839
68 1 5 0.75 208.571 42.2988 6.93163
69 1 15 0 211.381 40.9828 8.989
70 1 15 0 211.226 38.8474 12.2978
71 1 2 0 212.588 41.0673 14.9873
72 1 15 0 210.755 42.3987 18.1235
73 1 15 0 208.482 41.2867 21.118
74 1 18 0 206.532 38.5466 19.5046
75 1 4 0 205.107 36.8848 22.9073
76 1 5 0.75 201.633 37.2427 24.8404
77 1 16 0.375 199.393 38.9359 27.3869
78 1 4 0 198.084 36.0479 29.9697
79 1 4 0 200.991 34.334 31.3579
80 1 5 0.75 203.023 31.6085 32.3391
81 1 10 0 203.11 27.8381 31.0936
82 1 19 0 205.054 24.5841 30.2995
83 1 10 0 203.487 22.9991 27.1511
ITEM: TIMESTEP
800000
ITEM: NUMBER OF ATOMS
83
ITEM: BOX BOUNDS pp pp pp
-3.0000000000000000e+02 3.0000000000000000e+02
-3.0000000000000000e+02 3.0000000000000000e+02
-3.0000000000000000e+02 3.0000000000000000e+02
ITEM: ATOMS id mol type q xu yu zu
1 1 2 0 165.793 9.77283 43.7657
2 1 6 0 167.353 10.195 47.0558
3 1 15 0 169.612 7.31306 45.5139
4 1 6 0 167.654 5.66639 42.4843
5 1 15 0 164.949 5.16677 45.5816
6 1 15 0 165.424 5.33255 49.2282
7 1 15 0 165.592 1.59723 50.3588
8 1 18 0 168.58 -0.781509 49.4909
9 1 15 0 171.081 -2.82888 51.6858
10 1 18 0 173.002 -0.509237 53.6566
11 1 15 0 176.394 -0.312291 55.1317
12 1 4 0 176.369 2.05709 58.2603
13 1 18 0 178.61 5.08331 59.4717
14 1 4 0 182.216 5.3879 58.2266
15 1 3 0.75 182.967 8.83044 56.027
16 1 15 0 183.66 12.1282 57.4889
17 1 2 0 183.135 15.1171 55.5319
18 1 3 0.75 184.159 18.7629 56.4754
19 1 1 0 182.807 22.0622 58.1724
20 1 5 0.75 184.625 25.4691 57.8516
21 1 15 0 187.522 26.9784 60.2286
22 1 5 0.75 190.119 29.8202 60.244
23 1 15 0 193.184 30.57 62.0537
24 1 15 0 193.204 29.8378 65.7074
25 1 15 0 195.661 28.7452 68.6809
26 1 18 0 193.282 30.3309 71.5472
27 1 10 0 191.703 27.0118 72.6373
28 1 5 0.75 188.166 24.8948 72.6066
29 1 18 0 187.255 26.7079 75.3976
30 1 3 0.75 188.288 28.3603 78.8646
31 1 6 0 187.85 31.8559 76.9996
32 1 9 0 190.482 34.5728 77.9745
33 1 4 0 190.793 38.4656 77.1616
34 1 18 0 193.094 38.0781 74.0668
35 1 15 0 195.44 35.7818 72.3358
36 1 18 0 197.216 34.7696 75.5304
37 1 5 0.75 201.226 33.9079 75.1241
38 1 15 0 204.007 36.2921 74.6212
39 1 18 0 205.848 39.6145 74.1861
40 1 17 0 208.508 41.1035 72.0407
41 1 9 0 208.74 43.911 69.6074
42 1 16 0.375 212.43 45.288 70.2556
43 1 5 0.75 215.745 43.5581 70.995
44 1 14 0 218.855 42.3029 69.2429
45 1 6 0 221.294 39.1025 69.3255
46 1 11 0 220.643 36.1206 71.6152
47 1 7 -0.75 217.305 34.9053 70.4936
48 1 15 0 216.324 32.5622 73.3475
49 1 18 0 218.609 29.624 73.547
50 1 18 0 217.755 26.3979 72.1599
51 1 12 0 216.775 23.6794 69.3374
52 1 15 0 216.019 21.1099 66.6983
53 1 18 0 217.513 18.2544 64.9999
54 1 5 0.75 220.291 16.042 64.6104
55 1 5 0.75 223.637 15.0156 62.8224
56 1 15 0 223.551 15.2111 58.9142
57 1 15 0 223.585 17.8866 56.4425
58 1 17 0 221.274 20.1137 54.2439
59 1 15 0 221.541 22.8032 56.2482
60 1 15 0 220.562 20.9337 59.6002
61 1 20 0 223.355 21.5916 62.1864
62 1 4 0 222.698 24.0057 64.8028
63 1 3 0.75 220.404 27.2304 64.7253
64 1 3 0.75 216.762 27.5613 64.4654
65 1 2 0 214.17 29.0658 62.0302
66 1 15 0 215.337 30.8661 58.8451
67 1 5 0.75 216.571 28.9042 56.3347
68 1 5 0.75 215.653 27.5136 52.5951
69 1 15 0 212.384 27.6161 51.4512
70 1 15 0 209.117 29.7454 51.9629
71 1 2 0 210.651 33.0414 51.8925
72 1 15 0 212.732 35.6672 50.5863
73 1 15 0 215.948 35.7984 48.6979
74 1 18 0 218.501 37.4057 50.4664
75 1 4 0 217.102 40.3521 52.9029
76 1 5 0.75 213.443 40.6968 54.5695
77 1 16 0.375 210.078 40.2922 54.8083
78 1 4 0 207.997 39.7224 51.6353
79 1 4 0 206.556 37.0112 48.9814
80 1 5 0.75 204.55 38.4855 45.988
81 1 10 0 201.214 37.517 44.6284
82 1 19 0 199.686 36.1551 41.0792
83 1 10 0 198.555 39.4039 39.6164
ITEM: TIMESTEP
900000
ITEM: NUMBER OF ATOMS
83
ITEM: BOX BOUNDS pp pp pp
-3.0000000000000000e+02 3.0000000000000000e+02
-3.0000000000000000e+02 3.0000000000000000e+02
-3.0000000000000000e+02 3.0000000000000000e+02
ITEM: ATOMS id mol type q xu yu zu
1 1 2 0 165.676 54.7865 56.0628
2 1 6 0 164.252 53.2841 58.917
3 1 15 0 166.654 50.2527 59.2643
4 1 6 0 169.022 47.9155 58.1557
5 1 15 0 167.66 45.2876 60.077
6 1 15 0 167.75 44.537 63.3612
7 1 15 0 171.376 45.6291 63.5424
8 1 18 0 174.999 46.061 63.9966
9 1 15 0 176.402 43.5273 61.7207
10 1 18 0 180.17 41.9355 61.8422
11 1 15 0 180.646 40.5852 58.1664
12 1 4 0 177.24 39.6276 56.976
13 1 18 0 174.371 40.9488 55.3082
14 1 4 0 171.306 40.4662 52.9634
15 1 3 0.75 172.033 38.4796 49.8535
16 1 15 0 171.53 34.8776 49.3904
17 1 2 0 175.272 33.7378 48.7716
18 1 3 0.75 178 36.6256 49.2259
19 1 1 0 181.235 38.4604 47.6822
20 1 5 0.75 184.939 39.4623 48.4433
21 1 15 0 185.712 42.5136 47.0877
22 1 5 0.75 186.667 45.9756 46.2395
23 1 15 0 187.963 45.9715 49.9555
24 1 15 0 189.502 48.2473 52.5901
25 1 15 0 187.956 51.7984 52.7228
26 1 18 0 184.147 50.7811 52.0386
27 1 10 0 183.645 51.3124 48.1753
28 1 5 0.75 180.522 50.8094 45.7383
29 1 18 0 181.079 48.0488 43.3712
30 1 3 0.75 179.34 44.7351 42.0962
31 1 6 0 180.794 41.4106 40.8774
32 1 9 0 184.491 40.9165 39.7178
33 1 4 0 187.62 42.8971 39.4767
34 1 18 0 190.888 42.9916 40.8949
35 1 15 0 192.196 42.3718 44.1533
36 1 18 0 195.434 39.9612 43.6424
37 1 5 0.75 193.093 36.7158 43.1691
38 1 15 0 191.206 37.5075 46.3946
39 1 18 0 189.291 34.2658 47.6867
40 1 17 0 188.599 34.346 51.3257
41 1 9 0 185.973 32.9763 53.4115
42 1 16 0.375 184.256 29.9682 52.2257
43 1 5 0.75 185.599 27.0558 50.2004
44 1 14 0 188.723 26.7835 48.0388
45 1 6 0 192.089 27.9225 49.8919
46 1 11 0 195.925 27.88 49.0403
47 1 7 -0.75 196.437 31.7547 48.1502
48 1 15 0 195.178 33.1159 51.5987
49 1 18 0 197.075 32.5365 55.2578
50 1 18 0 198.557 29.2205 55.2743
51 1 12 0 196.947 25.8754 55.5447
52 1 15 0 198.838 24.3558 58.5586
53 1 18 0 199.918 22.8674 62.0908
54 1 5 0.75 199.185 20.6607 65.3728
55 1 5 0.75 199.646 16.764 66.0981
56 1 15 0 199.802 12.7278 65.0808
57 1 15 0 202.925 11.264 66.1161
58 1 17 0 206.113 13.6002 65.9183
59 1 15 0 204.493 14.4456 62.8709
60 1 15 0 206.514 15.0733 59.8013
61 1 20 0 203.73 16.9796 58.0526
62 1 4 0 200.184 16.7356 56.6897
63 1 3 0.75 198.671 13.2889 55.2251
64 1 3 0.75 199.784 11.606 58.6724
65 1 2 0 202.979 10.154 58.6311
66 1 15 0 203.325 6.4311 58.1829
67 1 5 0.75 207.267 6.32756 56.9927
68 1 5 0.75 210.06 4.27328 58.2575
69 1 15 0 211.007 4.57243 61.9343
70 1 15 0 215.002 4.23843 62.6837
71 1 2 0 217.785 3.39454 60.7742
72 1 15 0 216.515 5.65952 57.9014
73 1 15 0 214.151 7.36987 55.6067
74 1 18 0 211.944 10.507 56.8776
75 1 4 0 212.44 13.9531 57.7077
76 1 5 0.75 216.052 15.6062 57.7055
77 1 16 0.375 217.624 16.4923 54.2481
78 1 4 0 220.809 17.628 52.5085
79 1 4 0 223.744 16.9961 54.8758
80 1 5 0.75 225.424 15.7817 58.1354
81 1 10 0 228.85 17.4527 57.7801
82 1 19 0 230.577 14.6202 56.0656
83 1 10 0 230.118 14.5737 52.7718
ITEM: TIMESTEP
1000000
ITEM: NUMBER OF ATOMS
83
ITEM: BOX BOUNDS pp pp pp
-3.0000000000000000e+02 3.0000000000000000e+02
-3.0000000000000000e+02 3.0000000000000000e+02
-3.0000000000000000e+02 3.0000000000000000e+02
ITEM: ATOMS id mol type q xu yu zu
1 1 2 0 189.315 60.3747 46.6534
2 1 6 0 191.98 57.7824 46.6055
3 1 15 0 189.982 54.8114 45.4487
4 1 6 0 187.138 54.3332 48.3707
5 1 15 0 185.438 51.749 49.9809
6 1 15 0 188.489 50.3967 51.8997
7 1 15 0 190.823 52.4354 54.2967