LAMMPS (10 Mar 2021)
Reading data file ...
  orthogonal box = (-300.00000 -300.00000 -300.00000) to (300.00000 300.00000 300.00000)
  1 by 1 by 1 MPI processor grid
  reading atoms ...
  176 atoms
  scanning bonds ...
  1 = max bonds/atom
  reading bonds ...
  175 bonds
Finding 1-2 1-3 1-4 neighbors ...
  special bond factors lj:    0        0        0       
  special bond factors coul:  0        0        0       
     2 = max # of 1-2 neighbors
     2 = max # of 1-3 neighbors
     4 = max # of 1-4 neighbors
     6 = max # of special neighbors
  special bonds CPU = 0.000 seconds
  read_data CPU = 0.002 seconds
Setting atom values ...
  3 settings made for charge
Setting atom values ...
  0 settings made for charge
Setting atom values ...
  0 settings made for charge
Setting atom values ...
  0 settings made for charge
Setting atom values ...
  0 settings made for charge
Setting atom values ...
  0 settings made for charge
Setting atom values ...
  0 settings made for charge
Setting atom values ...
  0 settings made for charge
Setting atom values ...
  0 settings made for charge
Setting atom values ...
  0 settings made for charge
Finding 1-2 1-3 1-4 neighbors ...
  special bond factors lj:    0        1        1       
  special bond factors coul:  0        1        1       
     2 = max # of 1-2 neighbors
     6 = max # of special neighbors
  special bonds CPU = 0.000 seconds
New timer settings: style=normal  mode=nosync  timeout=11:50:00

CITE-CITE-CITE-CITE-CITE-CITE-CITE-CITE-CITE-CITE-CITE-CITE-CITE

Your simulation uses code contributions which should be cited:

- neighbor multi command:

@Article{Intveld08,
 author =  {P.{\,}J.~in{\,}'t~Veld and S.{\,}J.~Plimpton and G.{\,}S.~Grest},
 title =   {Accurate and Efficient Methods for Modeling Colloidal
            Mixtures in an Explicit Solvent using Molecular Dynamics},
 journal = {Comp.~Phys.~Comm.},
 year =    2008,
 volume =  179,
 pages =   {320--329}
}

CITE-CITE-CITE-CITE-CITE-CITE-CITE-CITE-CITE-CITE-CITE-CITE-CITE

Neighbor list info ...
  update every 10 steps, delay 0 steps, check yes
  max neighbors/atom: 2000, page size: 100000
  master list distance cutoff = 38.5
  ghost atom cutoff = 38.5
  binsize = 8.7926654, bins = 69 69 69
  2 neighbor lists, perpetual/occasional/extra = 2 0 0
  (1) pair wf/cut, perpetual
      attributes: half, newton on
      pair build: half/multi/newton
      stencil: half/multi/3d/newton
      bin: standard
  (2) pair coul/debye, perpetual, skip from (1)
      attributes: half, newton on
      pair build: skip
      stencil: none
      bin: none
Per MPI rank memory allocation (min/avg/max) = 10.87 | 10.87 | 10.87 Mbytes
Step PotEng Press KinEng Temp Lx Ly Lz Pzz S/CPU Density TotEng E_vdwl E_coul E_pair E_bond E_angle E_dihed E_impro E_mol E_long E_tail Enthalpy Ecouple Econserve 
       0    8057.1046   -4.6721439            0            0          600          600          600   -6.0870513            0 0.00013373488    8057.1046  -0.34344592            0  -0.34344592     8057.448            0            0            0     8057.448            0            0   -6660.7956            0    8057.1046 
    1000    62.842184 -0.0049402579    708.08961    1357.4251          600          600          600 0.0096236051    16769.234 0.00013373488     770.9318    -12.00756            0    -12.00756    74.849744            0            0            0    74.849744            0            0     755.3693            0     770.9318 
    2000    39.496671 -0.014499411     162.2151    310.97032          600          600          600 -0.025987476    23729.344 0.00013373488    201.71177   -15.078022            0   -15.078022    54.574693            0            0            0    54.574693            0            0    156.03662            0    201.71177 
    3000    34.771614 -0.030646019    164.00578    314.40309          600          600          600 -0.036333417    24368.912 0.00013373488    198.77739   -14.313961            0   -14.313961    49.085575            0            0            0    49.085575            0            0    102.23819            0    198.77739 
    4000    38.117828 -0.050232181    142.55097     273.2737          600          600          600 -0.032797296    24284.116 0.00013373488     180.6688   -17.072195            0   -17.072195    55.190023            0            0            0    55.190023            0            0     22.43048            0     180.6688 
    5000    35.200344  0.010739847    170.43401    326.72615          600          600          600 -0.012315616    24144.743 0.00013373488    205.63435    -13.55537            0    -13.55537    48.755714            0            0            0    48.755714            0            0    239.46635            0    205.63435 
    6000     31.47948  0.017543483    159.80601    306.35203          600          600          600  0.037589431     23389.66 0.00013373488    191.28549   -12.557245            0   -12.557245    44.036725            0            0            0    44.036725            0            0    246.54989            0    191.28549 
    7000    42.572122 0.0010583479    145.73107    279.37003          600          600          600 -0.0012164033    23662.409 0.00013373488     188.3032   -12.555018            0   -12.555018     55.12714            0            0            0     55.12714            0            0    191.63714            0     188.3032 
    8000    34.887076  -0.03843625    164.05805    314.50329          600          600          600 -0.037672594    23827.753 0.00013373488    198.94512   -17.129222            0   -17.129222    52.016299            0            0            0    52.016299            0            0    77.865614            0    198.94512 
    9000    31.387647 0.0096933585    158.18439    303.24335          600          600          600   0.04882701    24014.107 0.00013373488    189.57204   -16.896138            0   -16.896138    48.283785            0            0            0    48.283785            0            0    220.10746            0    189.57204 
   10000    33.286089 -0.014468485     130.7332    250.61874          600          600          600 -0.027048977    23343.837 0.00013373488    164.01929   -15.605831            0   -15.605831     48.89192            0            0            0     48.89192            0            0    118.44156            0    164.01929 
   11000    27.005399 -0.0027784485    170.11786    326.12009          600          600          600 -0.022577246    22565.186 0.00013373488    197.12326   -16.686291            0   -16.686291    43.691689            0            0            0    43.691689            0            0    188.37076            0    197.12326 
   12000    31.706385 -0.014473625    152.41558    292.18439          600          600          600  -0.03158861    22868.085 0.00013373488    184.12196   -16.423276            0   -16.423276     48.12966            0            0            0     48.12966            0            0    138.52804            0    184.12196 
   13000    48.384226 -0.0013137424    174.07046    333.69733          600          600          600 -0.034116676    22530.156 0.00013373488    222.45469   -13.815188            0   -13.815188    62.199414            0            0            0    62.199414            0            0    218.31622            0    222.45469 
   14000    42.228435  0.013761854    171.45971    328.69246          600          600          600 -0.023700311    22790.424 0.00013373488    213.68815   -17.273592            0   -17.273592    59.502027            0            0            0    59.502027            0            0    257.03989            0    213.68815 
   15000    28.160876  0.011403986     148.9174    285.47829          600          600          600  0.039935861    22241.038 0.00013373488    177.07828   -18.571743            0   -18.571743    46.732619            0            0            0    46.732619            0            0    213.00241            0    177.07828 
   16000     33.73708 -0.016199306     165.0414     316.3884          600          600          600 -0.017483782    21996.444 0.00013373488    198.77848   -17.765034            0   -17.765034    51.502114            0            0            0    51.502114            0            0    147.74843            0    198.77848 
   17000    35.445847 -0.017550867    163.26198     312.9772          600          600          600  -0.03883128    22657.217 0.00013373488    198.70782   -18.448345            0   -18.448345    53.894192            0            0            0    53.894192            0            0    143.42016            0    198.70782 
   18000    40.074127 -0.0074457462    171.14938    328.09754          600          600          600 -0.014884787    23368.289 0.00013373488     211.2235   -17.059568            0   -17.059568    57.133695            0            0            0    57.133695            0            0    187.76837            0     211.2235 
   19000    53.163854 -0.0081410242    155.89998    298.86407          600          600          600 -0.013976214    22906.926 0.00013373488    209.06383   -7.6510338            0   -7.6510338    60.814888            0            0            0    60.814888            0            0    183.41848            0    209.06383 
   20000    43.961943 0.00043528014    159.01624    304.83802          600          600          600 -0.016194965    22197.487 0.00013373488    202.97818   -14.883658            0   -14.883658    58.845601            0            0            0    58.845601            0            0    204.34938            0    202.97818 
   21000    34.011132 0.0053462389     154.5237    296.22571          600          600          600  0.012959123    22570.286 0.00013373488    188.53483   -17.703047            0   -17.703047    51.714179            0            0            0    51.714179            0            0    205.37622            0    188.53483 
   22000    39.417498 0.0088243691    167.05975    320.25762          600          600          600 -0.026272091    22834.719 0.00013373488    206.47724   -14.374997            0   -14.374997    53.792495            0            0            0    53.792495            0            0    234.27523            0    206.47724 
   23000     33.62405 -0.0019256457    181.36908    347.68895          600          600          600  -0.03578556    22472.937 0.00013373488    214.99313   -16.077608            0   -16.077608    49.701659            0            0            0    49.701659            0            0    208.92708            0    214.99313 
   24000    36.857053 0.00086471931    165.55284    317.36884          600          600          600 -0.0033472809    22235.025 0.00013373488    202.40989   -14.222821            0   -14.222821    51.079874            0            0            0    51.079874            0            0    205.13388            0    202.40989 
   25000    50.795373 -0.013687786    161.94129     310.4454          600          600          600 -0.043144616    22737.175 0.00013373488    212.73666   -16.597326            0   -16.597326    67.392699            0            0            0    67.392699            0            0    169.61824            0    212.73666 
   26000    37.917344 0.0055239441    162.43758    311.39681          600          600          600 0.0038347234    22138.086 0.00013373488    200.35493   -18.442526            0   -18.442526     56.35987            0            0            0     56.35987            0            0    217.75611            0    200.35493 
   27000    29.828256   0.02828012    171.17419     328.1451          600          600          600  0.026666519    22533.182 0.00013373488    201.00244   -17.443395            0   -17.443395    47.271651            0            0            0    47.271651            0            0    290.08874            0    201.00244 
   28000    39.456501 -0.017368346    158.73232    304.29374          600          600          600 -0.0028251903    22367.832 0.00013373488    198.18882   -15.601924            0   -15.601924    55.058425            0            0            0    55.058425            0            0    143.47613            0    198.18882 
   29000    37.726773  0.023619024    156.57814    300.16412          600          600          600  0.028281912    21834.075 0.00013373488    194.30491   -16.709472            0   -16.709472    54.436245            0            0            0    54.436245            0            0    268.70811            0    194.30491 
   30000    38.746885 -0.011812637    167.38438    320.87995          600          600          600 -0.036510298    21235.907 0.00013373488    206.13127   -18.576903            0   -18.576903    57.323788            0            0            0    57.323788            0            0    168.91983            0    206.13127 
   31000     46.97843 -0.0026566881     155.0471    297.22908          600          600          600 -0.0018002013    21418.306 0.00013373488    202.02553   -17.249668            0   -17.249668    64.228098            0            0            0    64.228098            0            0     193.6566            0    202.02553 
   32000    41.782141  0.012680852    194.64366    373.13665          600          600          600 -0.023242794    20524.597 0.00013373488     236.4258   -15.080383            0   -15.080383    56.862524            0            0            0    56.862524            0            0    276.37224            0     236.4258 
   33000    37.658367 -0.015622866     159.0214    304.84791          600          600          600 -0.011614853    21766.656 0.00013373488    196.67977   -13.379813            0   -13.379813     51.03818            0            0            0     51.03818            0            0    147.46558            0    196.67977 
   34000    42.791774 -0.0046463467     139.1045    266.66673          600          600          600 -0.0076146133    22755.185 0.00013373488    181.89628   -17.897433            0   -17.897433    60.689206            0            0            0    60.689206            0            0    167.25964            0    181.89628 
   35000    37.329768 -0.0016818482    148.81271    285.27761          600          600          600 -0.037658668    22429.553 0.00013373488    186.14248   -12.930393            0   -12.930393     50.26016            0            0            0     50.26016            0            0    180.84443            0    186.14248 
   36000    34.515338 -0.016928428    162.02102    310.59826          600          600          600 -0.033494116    22135.166 0.00013373488    196.53636   -14.338525            0   -14.338525    48.853863            0            0            0    48.853863            0            0    143.20947            0    196.53636 
   37000    28.077272   0.01151366      143.558    275.20419          600          600          600 -0.0073202672    21287.425 0.00013373488    171.63527   -21.775751            0   -21.775751    49.853023            0            0            0    49.853023            0            0    207.90489            0    171.63527 
   38000    50.147414 -0.012365534    154.86413    296.87833          600          600          600 -0.020272485    21520.177 0.00013373488    205.01155   -16.617536            0   -16.617536    66.764949            0            0            0    66.764949            0            0     166.0584            0    205.01155 
   39000    28.935777  0.018292231    156.65712    300.31553          600          600          600  0.029628803    21629.154 0.00013373488     185.5929   -17.030665            0   -17.030665    45.966442            0            0            0    45.966442            0            0    243.21596            0     185.5929 
   40000    29.866871 0.0034546461    160.30734    307.31309          600          600          600  0.024505199    22393.866 0.00013373488    190.17421   -16.650188            0   -16.650188     46.51706            0            0            0     46.51706            0            0    201.05682            0    190.17421 
   41000    35.466086 -0.041970334    144.00794    276.06674          600          600          600 -0.032665549    22172.962 0.00013373488    179.47403   -19.897868            0   -19.897868    55.363953            0            0            0    55.363953            0            0    47.261664            0    179.47403 
   42000    40.979858 0.0079899264    145.78013    279.46407          600          600          600 -0.0014304015    21225.161 0.00013373488    186.75999   -14.703086            0   -14.703086    55.682944            0            0            0    55.682944            0            0    211.92936            0    186.75999 
   43000    35.149725 -0.023654762    156.61376    300.23241          600          600          600 -0.0057368195    22197.017 0.00013373488    191.76349   -18.836791            0   -18.836791    53.986516            0            0            0    53.986516            0            0    117.24771            0    191.76349 
   44000    32.159283 -0.0010972505    172.97462    331.59658          600          600          600 -0.022818407    22080.398 0.00013373488    205.13391   -17.983305            0   -17.983305    50.142588            0            0            0    50.142588            0            0    201.67742            0    205.13391 
   45000    42.659654 -0.00018395757    141.54204    271.33955          600          600          600 -0.0052875461    21993.561 0.00013373488    184.20169   -11.501223            0   -11.501223    54.160876            0            0            0    54.160876            0            0     183.6222            0    184.20169 
   46000     43.87194 -0.041653472    147.48613    282.73452          600          600          600 -0.031320745    22277.659 0.00013373488    191.35807   -16.328867            0   -16.328867    60.200807            0            0            0    60.200807            0            0    60.143866            0    191.35807 
   47000    37.648565 -0.026709609    168.89128    323.76872          600          600          600 -0.035739785    21727.304 0.00013373488    206.53985   -18.150227            0   -18.150227    55.798793            0            0            0    55.798793            0            0    122.40088            0    206.53985 
   48000    33.341279 -0.013204958    152.64072    292.61599          600          600          600 -0.024241424    20997.347 0.00013373488      185.982   -18.500225            0   -18.500225    51.841504            0            0            0    51.841504            0            0    144.38455            0      185.982 
   49000    29.903302  0.025709258    171.28421    328.35601          600          600          600   0.04438831    20795.692 0.00013373488    201.18751   -17.259688            0   -17.259688    47.162991            0            0            0    47.162991            0            0    282.17523            0    201.18751 
   50000    35.936587 -0.025893881    143.88441    275.82993          600          600          600 -0.033383578    21119.249 0.00013373488      179.821   -18.482506            0   -18.482506    54.419093            0            0            0    54.419093            0            0    98.251687            0      179.821 
   51000    37.604335 -0.027598407     133.1123    255.17954          600          600          600 -0.017861691    21091.319 0.00013373488    170.71664   -15.557922            0   -15.557922    53.162258            0            0            0    53.162258            0            0    83.777836            0    170.71664 
   52000    35.675499 0.0032077431     156.8414    300.66879          600          600          600 0.0098565661    20667.094 0.00013373488    192.51689   -16.036027            0   -16.036027    51.711526            0            0            0    51.711526            0            0    202.62173            0    192.51689 
   53000    26.327515  0.023338002    148.65722    284.97952          600          600          600  0.043384771    21247.741 0.00013373488    174.98473   -16.315136            0   -16.315136    42.642651            0            0            0    42.642651            0            0    248.50267            0    174.98473 
   54000    38.714448 -0.028819144    148.95411    285.54866          600          600          600 -0.018355455        21181 0.00013373488    187.66855   -15.823535            0   -15.823535    54.537983            0            0            0    54.537983            0            0    96.884259            0    187.66855 
   55000    31.768136  0.036770264    161.39072    309.38996          600          600          600  0.042896176    20552.053 0.00013373488    193.15886   -18.243882            0   -18.243882    50.012018            0            0            0    50.012018            0            0    308.99028            0    193.15886 
   56000    39.293863 -0.006555099    155.33276    297.77669          600          600          600 -0.00099228651    20748.577 0.00013373488    194.62662   -16.121182            0   -16.121182    55.415045            0            0            0    55.415045            0            0    173.97715            0    194.62662 
   57000    37.822759 -0.0020877419    166.68764    319.54428          600          600          600 -0.0056447059     21582.41 0.00013373488     204.5104   -16.209283            0   -16.209283    54.032042            0            0            0    54.032042            0            0    197.93372            0     204.5104 
   58000    32.084571 -0.017599313     154.7946    296.74503          600          600          600 0.0014771397    21318.803 0.00013373488    186.87917   -15.906575            0   -15.906575    47.991147            0            0            0    47.991147            0            0    131.43889            0    186.87917 
   59000     32.81803 -0.0046364978    155.26229     297.6416          600          600          600 -0.0068137101    21041.588 0.00013373488    188.08032   -17.168268            0   -17.168268    49.986298            0            0            0    49.986298            0            0    173.47471            0    188.08032 
   60000    41.530782 -0.0041776048    149.66879    286.91873          600          600          600 -0.0053024919    20908.272 0.00013373488    191.19957   -17.336348            0   -17.336348    58.867131            0            0            0    58.867131            0            0    178.03954            0    191.19957 
   61000     43.93681 0.0022845066    155.29109    297.69682          600          600          600 0.0038819579     20912.13 0.00013373488     199.2279   -17.286767            0   -17.286767    61.223577            0            0            0    61.223577            0            0    206.42441            0     199.2279 
   62000    35.370586 0.0017159177    166.16414    318.54072          600          600          600  0.018614034    20357.043 0.00013373488    201.53473   -18.564309            0   -18.564309    53.934895            0            0            0    53.934895            0            0     206.9401            0    201.53473 
   63000    44.329642 0.0045756563    183.10085     351.0088          600          600          600 -0.0080733502    20297.638 0.00013373488    227.43049   -14.148148            0   -14.148148     58.47779            0            0            0     58.47779            0            0    241.84444            0    227.43049 
   64000    36.730882 -0.038125165     148.9426    285.52661          600          600          600 -0.032596159    22151.766 0.00013373488    185.67348   -16.752759            0   -16.752759    53.483641            0            0            0    53.483641            0            0    65.573935            0    185.67348 
   65000    34.665776 0.0016773853    145.37213    278.68192          600          600          600 0.00093404981    21434.834 0.00013373488     180.0379   -18.137032            0   -18.137032    52.802808            0            0            0    52.802808            0            0     185.3219            0     180.0379 
   66000    29.362017 -0.00040714491    160.10461    306.92445          600          600          600 -0.0092015228    20876.428 0.00013373488    189.46663   -19.932052            0   -19.932052    49.294068            0            0            0    49.294068            0            0    188.18406            0    189.46663 
   67000    39.737493 -0.011312754    160.91405    308.47616          600          600          600 -0.014732969    21881.346 0.00013373488    200.65154    -15.00781            0    -15.00781    54.745303            0            0            0    54.745303            0            0     165.0148            0    200.65154 
   68000    29.291397 -0.023364723    167.28646    320.69224          600          600          600 -0.027600233    21491.948 0.00013373488    196.57786   -21.918207            0   -21.918207    51.209604            0            0            0    51.209604            0            0    122.97575            0    196.57786 
   69000    43.758542 0.0086528518    156.08242    299.21382          600          600          600  0.029079291    21432.096 0.00013373488    199.84097   -17.596565            0   -17.596565    61.355107            0            0            0    61.355107            0            0    227.09865            0    199.84097 
   70000    32.190274 -0.0037666714    162.16512     310.8745          600          600          600  0.011047477    21786.102 0.00013373488    194.35539   -17.843771            0   -17.843771    50.034045            0            0            0    50.034045            0            0    182.48986            0    194.35539 
   71000    38.865452  0.012048493    175.09685    335.66493          600          600          600  0.031340918    19968.027 0.00013373488     213.9623   -17.774258            0   -17.774258     56.63971            0            0            0     56.63971            0            0    251.91672            0     213.9623 
   72000    46.100346 -0.010359867    165.00149    316.31189          600          600          600 -0.025188424    19539.199 0.00013373488    211.10184   -17.111813            0   -17.111813     63.21216            0            0            0     63.21216            0            0    178.46682            0    211.10184 
   73000     32.20113 -0.0064801411     172.2011    330.11371          600          600          600 -0.019898521    19114.978 0.00013373488    204.40223   -19.857119            0   -19.857119    52.058249            0            0            0    52.058249            0            0    183.98889            0    204.40223 
   74000    29.785738  0.013569975    134.16281    257.19339          600          600          600 -0.014702641    18736.449 0.00013373488    163.94855   -16.462529            0   -16.462529    46.248267            0            0            0    46.248267            0            0    206.69585            0    163.94855 
   75000    26.791275  0.020839562     149.7905    287.15205          600          600          600  0.010465938    19531.283 0.00013373488    176.58178   -19.084109            0   -19.084109    45.875384            0            0            0    45.875384            0            0    242.22928            0    176.58178 
   76000    28.352024 -0.011594798    148.86985    285.38715          600          600          600 -0.0053433047     20060.57 0.00013373488    177.22188   -18.040787            0   -18.040787    46.392811            0            0            0    46.392811            0            0    140.69666            0    177.22188 
   77000    43.488453  0.023018268    160.50527    307.69253          600          600          600  0.011434236    19739.016 0.00013373488    203.99373   -13.979551            0   -13.979551    57.468004            0            0            0    57.468004            0            0    276.50446            0    203.99373 
   78000    33.861928 -0.0037043489    154.56158    296.29832          600          600          600 -0.033059983    20152.328 0.00013373488     188.4235   -16.675171            0   -16.675171    50.537099            0            0            0    50.537099            0            0    176.75429            0     188.4235 
   79000    35.740948 -0.015121415    170.10751    326.10025          600          600          600 -0.028430633    19138.091 0.00013373488    205.84845   -19.275856            0   -19.275856    55.016805            0            0            0    55.016805            0            0     158.2139            0    205.84845 
   80000    31.820366  0.043904218    166.11201    318.44079          600          600          600  0.026604175    19076.985 0.00013373488    197.93238   -20.833547            0   -20.833547    52.653913            0            0            0    52.653913            0            0    336.23674            0    197.93238 
   81000    26.895279 -0.015454191    154.94119    297.02604          600          600          600 -0.012765397    19931.495 0.00013373488    181.83647   -19.817219            0   -19.817219    46.712497            0            0            0    46.712497            0            0    133.15362            0    181.83647 
   82000    39.423621 -0.0041888776    146.02075    279.92534          600          600          600 -0.007421603    19262.281 0.00013373488    185.44437   -18.069227            0   -18.069227    57.492848            0            0            0    57.492848            0            0    172.24882            0    185.44437 
   83000    35.862183 -0.018989384    160.78515    308.22907          600          600          600 -0.042201287    18942.922 0.00013373488    196.64733    -20.40648            0    -20.40648    56.268662            0            0            0    56.268662            0            0    136.82815            0    196.64733 
   84000    26.004691  0.025520829    158.59108    304.02297          600          600          600  0.030494828    18695.777 0.00013373488    184.59577   -23.138735            0   -23.138735    49.143426            0            0            0    49.143426            0            0    264.98991            0    184.59577 
   85000    32.854424  0.013896043    148.98367    285.60534          600          600          600 -0.0057227136      19825.6 0.00013373488     181.8381   -21.644942            0   -21.644942    54.499366            0            0            0    54.499366            0            0    225.61255            0     181.8381 
   86000    23.850968  0.022427651    138.72924    265.94734          600          600          600  0.010578258    19410.615 0.00013373488     162.5802    -19.53295            0    -19.53295    43.383918            0            0            0    43.383918            0            0    233.23041            0     162.5802 
   87000    32.957631 -0.016312737    151.39585    290.22954          600          600          600 -0.013946961    19879.537 0.00013373488    184.35348   -17.900033            0   -17.900033    50.857664            0            0            0    50.857664            0            0     132.9661            0    184.35348 
   88000    23.929268 0.00082755063    149.02125    285.67737          600          600          600 -0.012077785    20346.772 0.00013373488    172.95052   -21.709295            0   -21.709295    45.638563            0            0            0    45.638563            0            0    175.55741            0    172.95052 
   89000    34.527761 -0.0035777743    162.72036    311.93891          600          600          600 -0.028592622    20000.401 0.00013373488    197.24812    -17.87024            0    -17.87024    52.398001            0            0            0    52.398001            0            0    185.97764            0    197.24812 
   90000    30.025861 -0.0046608844    148.58605    284.84309          600          600          600 -0.0032796691    19818.013 0.00013373488    178.61191   -21.214279            0   -21.214279     51.24014            0            0            0     51.24014            0            0    163.92948            0    178.61191 
   91000    31.888971 0.0062203899    159.41764    305.60751          600          600          600 -0.0018705005    19899.721 0.00013373488    191.30661    -21.78596            0    -21.78596    53.674931            0            0            0    53.674931            0            0     210.9017            0    191.30661 
   92000    29.215723 0.0045193299    145.87746    279.65065          600          600          600 -0.018501627    19652.171 0.00013373488    175.09318    -19.29856            0    -19.29856    48.514283            0            0            0    48.514283            0            0     189.3297            0    175.09318 
   93000    40.915231 -0.0069888835    156.21917    299.47597          600          600          600 -0.0072905838    20023.985 0.00013373488     197.1344    -18.12106            0    -18.12106    59.036291            0            0            0    59.036291            0            0    175.11845            0     197.1344 
   94000    39.822161  0.011502411    173.39778    332.40779          600          600          600  0.021433461    20317.795 0.00013373488    213.21994   -13.269852            0   -13.269852    53.092013            0            0            0    53.092013            0            0    249.45413            0    213.21994 
   95000    37.230486 -0.0020555595    157.83226    302.56831          600          600          600 -0.018391755    20088.433 0.00013373488    195.06275   -17.708673            0   -17.708673    54.939159            0            0            0    54.939159            0            0    188.58745            0    195.06275 
   96000    39.089466  0.022369102    153.95516    295.13581          600          600          600  0.036135462    20950.255 0.00013373488    193.04463   -20.241477            0   -20.241477    59.330944            0            0            0    59.330944            0            0     263.5104            0    193.04463 
   97000    36.167354  0.023077623    169.15066    324.26596          600          600          600 0.0047397411     19652.54 0.00013373488    205.31802   -14.632568            0   -14.632568    50.799921            0            0            0    50.799921            0            0    278.01572            0    205.31802 
   98000    30.235384 -0.010954833    149.52691    286.64675          600          600          600 -0.012245267    19425.808 0.00013373488     179.7623   -19.158378            0   -19.158378    49.393762            0            0            0    49.393762            0            0    145.25306            0     179.7623 
   99000    24.797508 -0.014576917    158.82801    304.47718          600          600          600 -0.00098003388    19596.346 0.00013373488    183.62552   -17.217165            0   -17.217165    42.014673            0            0            0    42.014673            0            0    137.70621            0    183.62552 
  100000    46.311364  -0.04023752    130.86889    250.87886          600          600          600 -0.056917256    19620.455 0.00013373488    177.18025   -14.976196            0   -14.976196     61.28756            0            0            0     61.28756            0            0    50.426494            0    177.18025 
  101000    28.010934 -0.019989489    162.97622    312.42939          600          600          600 -0.033612412    21063.779 0.00013373488    190.98715   -17.111343            0   -17.111343    45.122277            0            0            0    45.122277            0            0    128.01749            0    190.98715 
  102000    31.690621 -0.00010740503    151.76895    290.94479          600          600          600 -0.030408933    19404.688 0.00013373488    183.45957   -23.783934            0   -23.783934    55.474554            0            0            0    55.474554            0            0    183.12123            0    183.45957 
  103000    32.627484  0.012357432    141.10734    270.50621          600          600          600 0.0056134027    19650.606 0.00013373488    173.73482   -17.023353            0   -17.023353    49.650836            0            0            0    49.650836            0            0    212.66244            0    173.73482 
  104000    39.642154 -0.012018519    143.60185    275.28826          600          600          600 -0.035046062    20524.195 0.00013373488      183.244   -19.730217            0   -19.730217    59.372371            0            0            0    59.372371            0            0    145.38401            0      183.244 
  105000     34.35767  0.011647704    163.53762    313.50562          600          600          600  0.025071119    19905.199 0.00013373488    197.89529   -19.160283            0   -19.160283    53.517953            0            0            0    53.517953            0            0    234.58717            0    197.89529 
  106000    36.625834 0.0070139828    153.52832    294.31754          600          600          600 0.0063609524    19020.062 0.00013373488    190.15415   -20.123783            0   -20.123783    56.749616            0            0            0    56.749616            0            0    212.24917            0    190.15415 
  107000    27.104473 -0.0087214217    157.45628    301.84753          600          600          600 -0.028813568    18653.953 0.00013373488    184.56075   -19.324354            0   -19.324354    46.428828            0            0            0    46.428828            0            0    157.08707            0    184.56075 
  108000    27.350707 -0.010597003    161.39303    309.39438          600          600          600  0.002789054    19334.916 0.00013373488    188.74373   -20.678761            0   -20.678761    48.029468            0            0            0    48.029468            0            0    155.36171            0    188.74373 
  109000    35.613649  0.018686978    154.76933    296.69658          600          600          600  0.032711756    19117.504 0.00013373488    190.38297   -23.346377            0   -23.346377    58.960026            0            0            0    58.960026            0            0    249.24954            0    190.38297 
  110000    37.465521 0.0050835005    150.30954    288.14706          600          600          600 -0.019961769    19222.996 0.00013373488    187.77506   -15.727672            0   -15.727672    53.193192            0            0            0    53.193192            0            0    203.78879            0    187.77506 
  111000    29.255611  0.014341041     154.7953    296.74638          600          600          600 0.0044650819    19056.703 0.00013373488    184.05092   -18.533311            0   -18.533311    47.788921            0            0            0    47.788921            0            0    229.22718            0    184.05092 
  112000    20.074561  0.022575191      146.175    280.22104          600          600          600  0.040296623    19014.716 0.00013373488    166.24956    -20.65642            0    -20.65642    40.730982            0            0            0    40.730982            0            0    237.36453            0    166.24956 
  113000    31.101115 0.0025304269    151.20897     289.8713          600          600          600 0.00054033911    17863.457 0.00013373488    182.31009   -20.841933            0   -20.841933    51.943048            0            0            0    51.943048            0            0    190.28128            0    182.31009 
  114000    33.889297 -0.012259454    146.13926    280.15254          600          600          600 -0.016732824    18099.258 0.00013373488    180.02856   -24.248169            0   -24.248169    58.137465            0            0            0    58.137465            0            0    141.40958            0    180.02856 
  115000    25.911556 0.0058838539    157.75607    302.42225          600          600          600 -0.0048475074    17902.877 0.00013373488    183.66763   -20.259473            0   -20.259473    46.171029            0            0            0    46.171029            0            0    202.20258            0    183.66763 
  116000    29.514048  0.027249464    164.86606    316.05227          600          600          600  0.011979932    18168.565 0.00013373488    194.38011   -14.712274            0   -14.712274    44.226322            0            0            0    44.226322            0            0    280.21969            0    194.38011 
  117000    31.423777 0.0076672007    163.29092    313.03268          600          600          600  0.012035612    17608.403 0.00013373488    194.71469   -22.408707            0   -22.408707    53.832484            0            0            0    53.832484            0            0    218.86744            0    194.71469 
  118000    43.970334 -0.0045928792    148.31442    284.32236          600          600          600   0.00535172    17823.756 0.00013373488    192.28475   -17.240326            0   -17.240326     61.21066            0            0            0     61.21066            0            0    177.81654            0    192.28475 
  119000     40.21054 0.0091392501     156.9609    300.89788          600          600          600  0.024007588    18060.991 0.00013373488    197.17144   -19.123143            0   -19.123143    59.333684            0            0            0    59.333684            0            0    225.96134            0    197.17144 
  120000    30.741171   0.02672936    169.83842     325.5844          600          600          600  0.016029379    17726.056 0.00013373488    200.57959   -22.778931            0   -22.778931    53.520101            0            0            0    53.520101            0            0    284.78078            0    200.57959 
  121000    19.871346  0.034762938    162.26111    311.05852          600          600          600  0.026710262     18178.88 0.00013373488    182.13246   -24.419909            0   -24.419909    44.291255            0            0            0    44.291255            0            0    291.64053            0    182.13246 
  122000    25.305502  0.019995318    157.08339     301.1327          600          600          600  0.024793195     18430.83 0.00013373488     182.3889   -18.711138            0   -18.711138     44.01664            0            0            0     44.01664            0            0    245.37692            0     182.3889 
  123000    25.680353 0.0097823903    152.27779    291.92024          600          600          600 -0.0038490638    18837.682 0.00013373488    177.95814   -17.650728            0   -17.650728    43.331081            0            0            0    43.331081            0            0    208.77402            0    177.95814 
  124000    28.562998 0.0056867017    177.69907    340.65347          600          600          600 -0.0021704172    19207.855 0.00013373488    206.26207   -20.956946            0   -20.956946    49.519944            0            0            0    49.519944            0            0    224.17597            0    206.26207 
  125000    35.724778  0.018199545    159.40922    305.59138          600          600          600  0.053183536     18994.05 0.00013373488      195.134   -17.982544            0   -17.982544    53.707322            0            0            0    53.707322            0            0    252.46509            0      195.134 
  126000    37.153632 -0.025827751    159.41465    305.60177          600          600          600 -0.045249953    20385.736 0.00013373488    196.56828   -16.085815            0   -16.085815    53.239447            0            0            0    53.239447            0            0    115.20729            0    196.56828 
  127000    34.045858  0.018565808    161.37522    309.36024          600          600          600   0.03026492    20719.365 0.00013373488    195.42108   -19.805777            0   -19.805777    53.851635            0            0            0    53.851635            0            0    253.90594            0    195.42108 
  128000    37.837328 -0.024925627    164.04276    314.47399          600          600          600 -0.025312824    20658.136 0.00013373488    201.88009   -18.216139            0   -18.216139    56.053467            0            0            0    56.053467            0            0    123.36092            0    201.88009 
  129000    36.906814  -0.03423494    150.54797    288.60413          600          600          600 -0.011996813    19315.505 0.00013373488    187.45478   -16.236887            0   -16.236887    53.143701            0            0            0    53.143701            0            0    79.609979            0    187.45478 
  130000    29.870035 -0.0034127375    141.62155    271.49197          600          600          600 -0.0070650931    19396.343 0.00013373488    171.49158   -22.421002            0   -22.421002    52.291037            0            0            0    52.291037            0            0    160.74099            0    171.49158 
  131000    37.269129 -0.027903374    170.58462    327.01489          600          600          600 -0.046780959    18698.277 0.00013373488    207.85375   -22.730427            0   -22.730427    59.999555            0            0            0    59.999555            0            0    119.95426            0    207.85375 
  132000    26.813628 -0.0010075079    158.13217    303.14323          600          600          600 -0.010994398    18590.125 0.00013373488    184.94579   -21.891065            0   -21.891065    48.704693            0            0            0    48.704693            0            0    181.77201            0    184.94579 
  133000    19.124297 -0.0010911194    169.18318    324.32828          600          600          600  0.010486919    18134.943 0.00013373488    188.30747   -23.957802            0   -23.957802    43.082099            0            0            0    43.082099            0            0     184.8703            0    188.30747 
  134000    26.860405  0.024564616    163.77101    313.95302          600          600          600  0.029750774    17243.763 0.00013373488    190.63141   -27.068221            0   -27.068221    53.928626            0            0            0    53.928626            0            0    268.01335            0    190.63141 
  135000    33.027781 -0.024836715    132.15955    253.35308          600          600          600 -0.060171928    17272.096 0.00013373488    165.18733    -25.57283            0    -25.57283    58.600611            0            0            0    58.600611            0            0    86.948239            0    165.18733 
  136000    26.708361 -0.0026571212    155.77086    298.61654          600          600          600 -0.0082881885    17783.099 0.00013373488    182.47922   -24.446748            0   -24.446748    51.155109            0            0            0    51.155109            0            0    174.10892            0    182.47922 
  137000    17.862743 0.0077821492    142.66839     273.4988          600          600          600 0.0018826415    17695.992 0.00013373488    160.53114    -23.70687            0    -23.70687    41.569613            0            0            0    41.569613            0            0    185.04598            0    160.53114 
  138000    21.869398   0.01919141    166.09877    318.41541          600          600          600  0.017796455    17232.782 0.00013373488    187.96817   -24.359211            0   -24.359211    46.228609            0            0            0    46.228609            0            0    248.42377            0    187.96817 
  139000    32.962881 0.0022829081    151.75815    290.92409          600          600          600 -0.0019405759    16989.173 0.00013373488    184.72103   -17.683125            0   -17.683125    50.646006            0            0            0    50.646006            0            0    191.91251            0    184.72103 
  140000    31.791315 0.0028116736    151.30121    290.04812          600          600          600 -0.011473505    17375.633 0.00013373488    183.09253   -22.324113            0   -22.324113    54.115428            0            0            0    54.115428            0            0    191.94969            0    183.09253 
  141000    32.469198 -0.012356734    157.54934    302.02594          600          600          600 -0.0051552064    18167.542 0.00013373488    190.01854   -19.844652            0   -19.844652    52.313851            0            0            0    52.313851            0            0    151.09312            0    190.01854 
  142000     27.80586 -0.0083980457    166.22749    318.66215          600          600          600 0.0036927071    19003.171 0.00013373488    194.03335    -18.23664            0    -18.23664      46.0425            0            0            0      46.0425            0            0    167.57834            0    194.03335 
  143000    31.406807   0.01815212    151.14162    289.74219          600          600          600  0.047460289    19044.329 0.00013373488    182.54843   -16.191705            0   -16.191705    47.598512            0            0            0    47.598512            0            0    239.73012            0    182.54843 
  144000    43.805673 -0.039413735    149.60829    286.80275          600          600          600 -0.036407574    19021.873 0.00013373488    193.41396   -19.737788            0   -19.737788    63.543461            0            0            0    63.543461            0            0    69.255241            0    193.41396 
  145000    33.480252 0.0079011953    158.64722     304.1306          600          600          600 -0.014780956    18789.917 0.00013373488    192.12747   -19.100848            0   -19.100848    52.581099            0            0            0    52.581099            0            0    217.01733            0    192.12747 
  146000    34.117534 -0.024777422    162.89851    312.28042          600          600          600 -0.0092012116    18838.443 0.00013373488    197.01604   -19.134975            0   -19.134975    53.252509            0            0            0    53.252509            0            0    118.96373            0    197.01604 
  147000    33.749966 0.0033520395    144.84059    277.66295          600          600          600  0.013685978     18020.33 0.00013373488    178.59056   -22.095091 0.00083329462   -22.094257    55.844224            0            0            0    55.844224            0            0    189.14995            0    178.59056 
  148000    23.280647  0.026816382    149.55779    286.70593          600          600          600  0.028454876    16797.642 0.00013373488    172.83843   -26.458417 0.0043876064   -26.454029    49.734676            0            0            0    49.734676            0            0    257.31375            0    172.83843 
  149000    33.896383  0.037100126    160.53361    307.74686          600          600          600  0.034531017    16163.706 0.00013373488    194.42999   -23.228335 0.0053743925   -23.222961    57.119343            0            0            0    57.119343            0            0    311.30053            0    194.42999 
  150000    26.980884  0.010845912      150.457    288.42975          600          600          600  0.026633907    16390.787 0.00013373488    177.43788   -21.170289  0.005452917   -21.164836     48.14572            0            0            0     48.14572            0            0    211.60401            0    177.43788 
  151000    29.854724 -0.028848049    163.28456     313.0205          600          600          600 -0.024109522    16812.051 0.00013373488    193.13929   -24.164544 0.0020614799   -24.162482    54.017206            0            0            0    54.017206            0            0    102.26394            0    193.13929 
  152000    33.223282 -0.0077636367    173.17015     331.9714          600          600          600 -0.024622632    17681.296 0.00013373488    206.39343     -22.2708 0.0033158155   -22.267484    55.490767            0            0            0    55.490767            0            0     181.9369            0    206.39343 
  153000     26.09032 -0.019102848    162.97716    312.43121          600          600          600 -0.011020969    17817.396 0.00013373488    189.06748   -24.787128 0.0012367973   -24.785891    50.876211            0            0            0    50.876211            0            0    128.89087            0    189.06748 
  154000    37.978764 -0.014537176     160.7247    308.11319          600          600          600 -0.0054324156    18020.253 0.00013373488    198.70347    -23.76063            0    -23.76063    61.739393            0            0            0    61.739393            0            0    152.90935            0    198.70347 
  155000    38.136908 0.0037149493    164.48917    315.32975          600          600          600   0.02526511    17428.918 0.00013373488    202.62607   -18.898891            0   -18.898891    57.035799            0            0            0    57.035799            0            0    214.32868            0    202.62607 
  156000    36.614332 -0.013229587    154.86459    296.87921          600          600          600 -0.0098984648    18178.802 0.00013373488    191.47892   -17.078718            0   -17.078718    53.693051            0            0            0    53.693051            0            0    149.80389            0    191.47892 
  157000    27.801229 -0.0056963603    169.14402    324.25321          600          600          600 -0.029350095    19160.035 0.00013373488    196.94525   -19.775293            0   -19.775293    47.576522            0            0            0    47.576522            0            0    179.00092            0    196.94525 
  158000    22.147175 -0.0022436849    150.83581    289.15593          600          600          600 -0.0066055837    18715.381 0.00013373488    172.98298   -20.303728            0   -20.303728    42.450903            0            0            0    42.450903            0            0    165.91506            0    172.98298 
  159000    41.846038 -0.0089895502    163.17323    312.80707          600          600          600 -0.021177353    18077.027 0.00013373488    205.01927   -20.250659            0   -20.250659    62.096696            0            0            0    62.096696            0            0    176.70094            0    205.01927 
  160000    27.240873  0.011312833    140.83867    269.99118          600          600          600  0.035880439    17373.114 0.00013373488    168.07955   -19.622812            0   -19.622812    46.863685            0            0            0    46.863685            0            0    203.71654            0    168.07955 
  161000    36.245685 -0.018715357    166.74684    319.65776          600          600          600 -0.012266804    17821.862 0.00013373488    202.99252   -18.025551            0   -18.025551    54.271236            0            0            0    54.271236            0            0    144.03656            0    202.99252 
  162000    24.837929  0.016743612    152.00302     291.3935          600          600          600 -0.0077715045    17233.348 0.00013373488    176.84094   -19.883812            0   -19.883812     44.72174            0            0            0     44.72174            0            0    229.58564            0    176.84094 
  163000    35.175688  0.026332815    147.93631    283.59753          600          600          600  0.017753701    17376.209 0.00013373488      183.112   -16.173379            0   -16.173379    51.349067            0            0            0    51.349067            0            0    266.06401            0      183.112 
  164000    34.615432 -0.00059762958    141.03156    270.36094          600          600          600 -0.0028865306     17616.76 0.00013373488    175.64699   -18.860504            0   -18.860504    53.475936            0            0            0    53.475936            0            0    173.76437            0    175.64699 
  165000    28.992094  0.002565289    147.21974    282.22384          600          600          600 -0.030993064    16517.235 0.00013373488    176.21183   -23.803565            0   -23.803565    52.795659            0            0            0    52.795659            0            0    184.29285            0    176.21183 
  166000    20.025082  0.002500641    157.91024    302.71779          600          600          600  0.010707086    16175.425 0.00013373488    177.93532   -27.366133            0   -27.366133    47.391215            0            0            0    47.391215            0            0    185.81269            0    177.93532 
  167000     34.18584  0.004263188     158.3535    303.56752          600          600          600 -0.015885051    17402.523 0.00013373488    192.53934    -19.15197            0    -19.15197    53.337811            0            0            0    53.337811            0            0    205.96897            0    192.53934 
  168000    35.607507 -0.025140046    152.31095    291.98381          600          600          600 -0.025343923     18082.17 0.00013373488    187.91846   -22.110386            0   -22.110386    57.717893            0            0            0    57.717893            0            0    108.72383            0    187.91846 
  169000    35.659419 -0.0028827678    155.30002    297.71393          600          600          600 -0.025908156    17610.917 0.00013373488    190.95944   -21.787727            0   -21.787727    57.447146            0            0            0    57.447146            0            0    181.87832            0    190.95944 
  170000    33.620299  0.037686563    157.98884    302.86846          600          600          600  0.062547596    18541.884 0.00013373488    191.60913    -15.56999            0    -15.56999    49.190289            0            0            0    49.190289            0            0    310.32703            0    191.60913 
  171000    23.377265  0.021798342    154.28323    295.76472          600          600          600  0.011613288    17718.867 0.00013373488    177.66049   -15.026229 0.00099107209   -15.025238    38.402503            0            0            0    38.402503            0            0    246.32829            0    177.66049 
  172000    23.458194 0.0097257989    145.84489    279.58822          600          600          600  0.021535455    14468.855 0.00013373488    169.30308   -18.985111 0.0027194127   -18.982392    42.440586            0            0            0    42.440586            0            0     199.9407            0    169.30308 
  173000    22.066791 -0.0076995641    154.17628     295.5597          600          600          600 -0.006941243    16952.299 0.00013373488    176.24307   -23.623074 0.0041676932   -23.618906    45.685697            0            0            0    45.685697            0            0    151.98838            0    176.24307 
  174000    32.677184 -0.019871866    138.23708    265.00387          600          600          600 -0.0093460898    16986.558 0.00013373488    170.91427   -20.804363 0.0014705352   -20.802893    53.480077            0            0            0    53.480077            0            0    108.31514            0    170.91427 
  175000    32.127953 -0.018179853     144.4235    276.86338          600          600          600  -0.02832903    17403.462 0.00013373488    176.55146    -20.01261 0.0026826232   -20.009927    52.137881            0            0            0    52.137881            0            0     119.2824            0    176.55146 
  176000    23.461606 0.0096630891    146.00473    279.89463          600          600          600  0.045605184    17132.685 0.00013373488    169.46633   -23.317856  0.003772853   -23.314083    46.775689            0            0            0    46.775689            0            0     199.9064            0    169.46633 
  177000    32.313222 0.0058412041    189.72699    363.71127          600          600          600 -0.026910002    16763.872 0.00013373488    222.04021   -18.401922 0.0065466671   -18.395376    50.708598            0            0            0    50.708598            0            0    240.44081            0    222.04021 
  178000    40.050244 -0.011781655    163.81322    314.03395          600          600          600  -0.02892732    17270.247 0.00013373488    203.86347   -17.675806 0.0023091329   -17.673497    57.723741            0            0            0    57.723741            0            0    166.74962            0    203.86347 
  179000    25.208036 0.0058309062      160.465    307.61533          600          600          600  0.020318406    16109.571 0.00013373488    185.67304   -19.144823 0.0058180963   -19.139005    44.347041            0            0            0    44.347041            0            0     204.0412            0    185.67304 
  180000    35.871183 -0.019478172    158.04526    302.97662          600          600          600 -0.0049312528    16947.436 0.00013373488    193.91644   -20.974446 0.0021734927   -20.972273    56.843456            0            0            0    56.843456            0            0     132.5575            0    193.91644 
  181000    34.006939 -0.038734057    138.54339    265.59106          600          600          600 -0.040200153    16408.741 0.00013373488    172.55032    -19.30259 0.0084413038   -19.294149    53.301088            0            0            0    53.301088            0            0    50.532681            0    172.55032 
  182000    28.052888 0.00045272344    150.02317    287.59809          600          600          600  0.025764693    16213.505 0.00013373488    178.07606   -15.334494  0.015193244     -15.3193    43.372188            0            0            0    43.372188            0            0     179.5022            0    178.07606 
  183000    24.795323  0.027860988    142.96769    274.07255          600          600          600  0.046793335    17402.235 0.00013373488    167.76301   -24.525712 0.0014535379   -24.524259    49.319582            0            0            0    49.319582            0            0    255.52898            0    167.76301 
  184000    32.617482  0.023686867    151.28897    290.02466          600          600          600  0.029206091    18597.049 0.00013373488    183.90646   -18.716672 0.00095789456   -18.715714    51.333196            0            0            0    51.333196            0            0    258.52336            0    183.90646 
  185000    35.770486 0.0022678324    141.23782    270.75634          600          600          600  0.016012542    17919.169 0.00013373488     177.0083   -21.277442 0.0024168668   -21.275025     57.04551            0            0            0     57.04551            0            0    184.15229            0     177.0083 
  186000    34.819927 -0.011628297    157.29352    301.53552          600          600          600  0.017804651    17755.697 0.00013373488    192.11344    -14.96684 0.0021545301   -14.964686    49.784613            0            0            0    49.784613            0            0     155.4827            0    192.11344 
  187000    30.156762 0.0076206546    145.48496    278.89823          600          600          600 -0.0022943444    17894.857 0.00013373488    175.64172    -24.46357   0.00158841   -24.461981    54.618744            0            0            0    54.618744            0            0    199.64784            0    175.64172 
  188000    35.492576 -0.006736548    171.61983     328.9994          600          600          600 -0.032117192    17762.013 0.00013373488     207.1124   -17.659953 0.0049295054   -17.655024    53.147599            0            0            0    53.147599            0            0    185.89134            0     207.1124 
  189000    42.333381 0.0043544326     166.1436    318.50135          600          600          600  0.010295085    17735.801 0.00013373488    208.47699   -18.028689 0.0008516005   -18.027837    60.361219            0            0            0    60.361219            0            0    222.19405            0    208.47699 
  190000    27.254445  0.042696581    162.03821    310.63121          600          600          600  0.045946425    18632.739 0.00013373488    189.29265   -20.231818 0.0019448831   -20.229873    47.484317            0            0            0    47.484317            0            0    323.79279            0    189.29265 
  191000    26.001417 -0.020389057    158.73336    304.29573          600          600          600 -0.013243022    18273.844 0.00013373488    184.73478    -22.47435 0.00076590173   -22.473584    48.475001            0            0            0    48.475001            0            0    120.50643            0    184.73478 
  192000    33.839912 -0.012445255    159.16974    305.13227          600          600          600  -0.00894524    18388.489 0.00013373488    193.00965   -17.788805            0   -17.788805    51.628717            0            0            0    51.628717            0            0    153.80537            0    193.00965 
  193000    38.091209 -0.001537909    156.52538    300.06298          600          600          600 -0.033641639    17543.517 0.00013373488    194.61659   -15.353331            0   -15.353331    53.444541            0            0            0    53.444541            0            0    189.77196            0    194.61659 
  194000    30.746179 0.0043945357    161.78239    310.14079          600          600          600  0.007331907    18138.629 0.00013373488    192.52857   -22.515643            0   -22.515643    53.261823            0            0            0    53.261823            0            0    206.37196            0    192.52857 
  195000    38.068434 -0.0060616013    170.31541    326.49881          600          600          600 0.0011133046    19074.122 0.00013373488    208.38385   -18.350771            0   -18.350771    56.419206            0            0            0    56.419206            0            0    189.28897            0    208.38385 
  196000    44.933295  0.030716721    160.81244    308.28137          600          600          600  0.018123837    18947.287 0.00013373488    205.74573    -17.81993            0    -17.81993    62.753225            0            0            0    62.753225            0            0    302.50766            0    205.74573 
  197000    42.108076 -0.012080283    159.87288    306.48021          600          600          600 -0.033321845    18242.529 0.00013373488    201.98095   -15.514821            0   -15.514821    57.622897            0            0            0    57.622897            0            0    163.92639            0    201.98095 
  198000    32.402265   0.02366369    146.64134    281.11503          600          600          600  0.032973783    17861.631 0.00013373488     179.0436   -16.720516            0   -16.720516    49.122781            0            0            0    49.122781            0            0     253.5875            0     179.0436 
  199000    39.857108 -0.0038507725    147.65817    283.06432          600          600          600  0.010211038    17906.393 0.00013373488    187.51528   -15.827971            0   -15.827971    55.685079            0            0            0    55.685079            0            0    175.38481            0    187.51528 
  200000    24.875037  0.017711089    163.63933    313.70059          600          600          600  0.011380436    18679.707 0.00013373488    188.51436   -22.745781            0   -22.745781    47.620817            0            0            0    47.620817            0            0    244.30674            0    188.51436 
  201000    34.696791  0.024195998    165.49815      317.264          600          600          600  0.016331732    18929.671 0.00013373488    200.19494   -21.359447            0   -21.359447    56.056238            0            0            0    56.056238            0            0    276.41569            0    200.19494 
  202000    27.566317  0.014164813    161.24459    309.10982          600          600          600  0.050857097    19200.117 0.00013373488    188.81091   -22.082241            0   -22.082241    49.648558            0            0            0    49.648558            0            0    233.43203            0    188.81091 
  203000    38.609871 -0.019243121    150.18941    287.91676          600          600          600  0.024968961     18969.91 0.00013373488    188.79928   -19.783696            0   -19.783696    58.393567            0            0            0    58.393567            0            0    128.18078            0    188.79928 
  204000    41.636222 0.0014583321    147.94592    283.61594          600          600          600 -0.0012417085    16931.974 0.00013373488    189.58214   -14.547852            0   -14.547852    56.184074            0            0            0    56.184074            0            0    194.17609            0    189.58214 
  205000    44.588883 -0.026010553    153.87944    294.99065          600          600          600 -0.025597473    13585.494 0.00013373488    198.46832   -20.310429            0   -20.310429    64.899312            0            0            0    64.899312            0            0    116.53148            0    198.46832 
  206000    35.916302 -0.0017655401    179.62222    344.34019          600          600          600 0.0039566361    16482.314 0.00013373488    215.53852    -19.31678            0    -19.31678    55.233082            0            0            0    55.233082            0            0    209.97683            0    215.53852 
  207000    43.649935 0.0016813068    153.85049    294.93515          600          600          600 -0.0068978304    15327.538 0.00013373488    197.50043   -19.637698 0.00077602364   -19.636922    63.286857            0            0            0    63.286857            0            0    202.79678            0    197.50043 
  208000    31.716081 0.0038430262    151.71061    290.83295          600          600          600 0.0092888861    16983.119 0.00013373488    183.42669   -19.410267 0.00076950615   -19.409498    51.125579            0            0            0    51.125579            0            0    195.53276            0    183.42669 
  209000    36.619729 -0.018443836    137.41723    263.43218          600          600          600 -0.053553068    17481.948 0.00013373488    174.03696   -17.425157            0   -17.425157    54.044886            0            0            0    54.044886            0            0    115.93632            0    174.03696 
  210000    42.008546 -0.0046313082    153.74488     294.7327          600          600          600 0.0055106757    16038.238 0.00013373488    195.75343   -16.940062            0   -16.940062    58.948608            0            0            0    58.948608            0            0    181.16417            0    195.75343 
  211000    26.805723 -0.0051332244    167.92739    321.92091          600          600          600 0.0010492919    16414.135 0.00013373488    194.73311   -18.892684            0   -18.892684    45.698406            0            0            0    45.698406            0            0    178.56274            0    194.73311 
  212000    32.940644 -0.00085560773    149.41629    286.43468          600          600          600 -0.012113159    17066.597 0.00013373488    182.35694   -18.017419            0   -18.017419    50.958063            0            0            0    50.958063            0            0    179.66165            0    182.35694 
  213000    40.328564  0.021142073     159.9807    306.68691          600          600          600  0.016767869    18104.805 0.00013373488    200.30926   -17.512979            0   -17.512979    57.841543            0            0            0    57.841543            0            0    266.90972            0    200.30926 
  214000    25.660185 -0.0066596821    152.07052     291.5229          600          600          600 -0.022820722    14722.332 0.00013373488    177.73071   -23.690791            0   -23.690791    49.350976            0            0            0    49.350976            0            0    156.75178            0    177.73071 
  215000    26.010398 -0.0017891579    162.50935     311.5344          600          600          600  0.020092986    16645.847 0.00013373488    188.51975   -21.398772  0.001257791   -21.397514    47.407912            0            0            0    47.407912            0            0    182.88366            0    188.51975 
  216000    39.833131 -0.009749728    144.23727    276.50637          600          600          600 -0.008190236    18052.518 0.00013373488     184.0704   -17.153051            0   -17.153051    56.986182            0            0            0    56.986182            0            0     153.3574            0     184.0704 
  217000    22.173043   0.01040257    165.01678     316.3412          600          600          600 -0.0044731729    18747.252 0.00013373488    187.18982    -25.36447            0    -25.36447    47.537513            0            0            0    47.537513            0            0    219.95936            0    187.18982 
  218000    42.519868  0.029912004    155.96303    298.98494          600          600          600  0.025493016    19158.547 0.00013373488     198.4829    -12.19267            0    -12.19267    54.712538            0            0            0    54.712538            0            0    292.70985            0     198.4829 
  219000    33.485259 0.0063207585    152.95525    293.21895          600          600          600  0.015686585    18475.075 0.00013373488    186.44051   -17.542345            0   -17.542345    51.027604            0            0            0    51.027604            0            0    206.35177            0    186.44051 
  220000    39.964603  0.023438553    162.45349    311.42732          600          600          600 0.0063489329    18786.045 0.00013373488     202.4181   -16.712246            0   -16.712246    56.676848            0            0            0    56.676848            0            0    276.25278            0     202.4181 
  221000    38.656897 -0.014964923    157.17405    301.30649          600          600          600 -0.042303782    18672.389 0.00013373488    195.83095   -18.482459            0   -18.482459    57.139357            0            0            0    57.139357            0            0    148.68937            0    195.83095 
  222000     36.57666 -0.021440561     152.2008    291.77266          600          600          600 -0.019536003    17864.522 0.00013373488    188.77746   -21.004909            0   -21.004909    57.581569            0            0            0    57.581569            0            0    121.23673            0    188.77746 
  223000    33.452207  0.015456193    150.06883    287.68561          600          600          600 0.0050856697        18831 0.00013373488    183.52104   -17.009627            0   -17.009627    50.461835            0            0            0    50.461835            0            0    232.21018            0    183.52104 
  224000    31.343662  0.011763892    154.41516    296.01764          600          600          600   0.03325088    18036.216 0.00013373488    185.75883    -21.45218            0    -21.45218    52.795842            0            0            0    52.795842            0            0    222.81672            0    185.75883 
  225000    30.299093 -0.022188435    150.65777    288.81463          600          600          600 -0.037126427    17720.065 0.00013373488    180.95687   -20.278293            0   -20.278293    50.577386            0            0            0    50.577386            0            0    111.06023            0    180.95687 
  226000    30.696933 -0.030389343    154.53162    296.24089          600          600          600 -0.047314851    17470.661 0.00013373488    185.22855    -22.34326 0.00074442726   -22.342515    53.039449            0            0            0    53.039449            0            0    89.497915            0    185.22855 
  227000    47.591087 -0.0024844425    148.92527    285.49338          600          600          600 -0.0070527549    16838.981 0.00013373488    196.51636   -22.281412 0.0015555793   -22.279857    69.870943            0            0            0    69.870943            0            0    188.69002            0    196.51636 
  228000    30.205711 -0.0087411105    163.02902    312.53062          600          600          600  -0.01491206    17084.672 0.00013373488    193.23473   -27.106921 0.0013472063   -27.105574    57.311285            0            0            0    57.311285            0            0    165.69903            0    193.23473 
  229000    36.018573 -0.0014363276    149.17806    285.97799          600          600          600 -0.016229545    16520.683 0.00013373488    185.19663    -23.97769 0.0010277713   -23.976662    59.995235            0            0            0    59.995235            0            0      180.672            0    185.19663 
  230000    24.235794  0.023465252    153.06495    293.42925          600          600          600  0.034648158    17021.301 0.00013373488    177.30074   -26.178855 0.0020285893   -26.176827    50.412621            0            0            0    50.412621            0            0    251.21954            0    177.30074 
  231000    30.866866 -0.0011606381    152.46909    292.28698          600          600          600 -0.0099405885    16612.158 0.00013373488    183.33596   -19.062137 0.0011894214   -19.060947    49.927813            0            0            0    49.927813            0            0    179.67979            0    183.33596 
  232000    48.463682 -0.0048203322    156.08739    299.22334          600          600          600 -0.010340225     16599.14 0.00013373488    204.55107   -19.236606            0   -19.236606    67.700287            0            0            0    67.700287            0            0    189.36636            0    204.55107 
  233000    31.222422  -0.02096459    151.12961    289.71917          600          600          600 -0.010094905    17046.829 0.00013373488    182.35204   -22.170754 0.0012049079   -22.169549    53.391972            0            0            0    53.391972            0            0    116.31068            0    182.35204 
  234000    38.583706 -0.027743803    140.68039    269.68775          600          600          600 -0.028761504    16747.339 0.00013373488     179.2641   -21.390727 0.0025598813   -21.388167    59.971873            0            0            0    59.971873            0            0    91.867277            0     179.2641 
  235000    42.849699  0.012740148    159.08995    304.97932          600          600          600  0.040176978    15927.575 0.00013373488    201.93965   -21.122518 0.0016935371   -21.120825    63.970524            0            0            0    63.970524            0            0    242.07288            0    201.93965 
  236000    36.530224 0.0072409611    153.84698    294.92843          600          600          600 0.0066204671    16253.842 0.00013373488    190.37721   -20.714673 0.0013616757   -20.713312    57.243536            0            0            0    57.243536            0            0    213.18724            0    190.37721 
  237000    38.953461   0.01400295    155.80045    298.67327          600          600          600  0.019903567    16662.776 0.00013373488    194.75391   -21.514712            0   -21.514712    60.468173            0            0            0    60.468173            0            0    238.86514            0    194.75391 
[...]
 4943000    32.930107  0.020558251    157.68562    302.28719          600          600          600 -0.0047559872    16894.736 0.00013373488    190.61573   -20.779875 0.0049922869   -20.774883     53.70499            0            0            0     53.70499            0            0    255.37706            0    190.61573 
 4944000    31.595555 0.0077161639    165.85239    317.94308          600          600          600 -0.0061597106    17000.466 0.00013373488    197.44794   -18.835214 0.0039440376    -18.83127    50.426825            0            0            0    50.426825            0            0    221.75493            0    197.44794 
 4945000    29.507736 -0.0072579455    163.97105     314.3365          600          600          600  0.025718366    14983.938 0.00013373488    193.47878   -24.516114 0.0017882862   -24.514325    54.022061            0            0            0    54.022061            0            0    170.61525            0    193.47878 
 4946000    36.133932 -0.011314208    162.55105    311.61434          600          600          600 -0.007516417    15834.314 0.00013373488    198.68498   -24.827302            0   -24.827302    60.961234            0            0            0    60.961234            0            0    163.04366            0    198.68498 
 4947000    35.200196  0.015739886    167.50508    321.11134          600          600          600 -0.023301085    16383.232 0.00013373488    202.70528   -18.882176            0   -18.882176    54.082371            0            0            0    54.082371            0            0     252.2881            0    202.70528 
 4948000    37.093737 -0.019604231    145.65336    279.22105          600          600          600 -0.0072354423    16059.117 0.00013373488     182.7471   -21.175919            0   -21.175919    58.269656            0            0            0    58.269656            0            0    120.99105            0     182.7471 
 4949000    28.648412  0.012174626    159.88637    306.50607          600          600          600  0.012333909    16966.426 0.00013373488    188.53478    -26.00283 0.0020545234   -26.000775    54.649187            0            0            0    54.649187            0            0    226.88654            0    188.53478 
 4950000    28.802278  0.034479358    152.54844    292.43909          600          600          600   0.03008442    16655.828 0.00013373488    181.35072   -21.814126 0.0017283796   -21.812398    50.614676            0            0            0    50.614676            0            0    289.96547            0    181.35072 
 4951000    29.338837 -0.006765521    145.92369    279.73928          600          600          600 -0.0063952845    16500.535 0.00013373488    175.26253   -22.908983 0.0016219736   -22.907361    52.246199            0            0            0    52.246199            0            0     153.9502            0    175.26253 
 4952000    31.324075 -0.036424532    184.96805    354.58827          600          600          600 -0.026376784    15995.912 0.00013373488    216.29212   -24.620809 0.0014127568   -24.619396    55.943472            0            0            0    55.943472            0            0    101.54981            0    216.29212 
 4953000    20.782784  0.015372472    168.38416    322.79655          600          600          600  0.013920453      15160.5 0.00013373488    189.16694   -28.852978 0.0063325847   -28.846645     49.62943            0            0            0     49.62943            0            0    237.59236            0    189.16694 
 4954000     26.64795  0.027811285    152.82407    292.96747          600          600          600  0.031019395    14229.991 0.00013373488    179.47202   -21.296475 0.0019973862   -21.294477    47.942427            0            0            0    47.942427            0            0    267.08141            0    179.47202 
 4955000    18.326732 -0.010047405    155.56388    298.21975          600          600          600 -0.013589149    15345.426 0.00013373488    173.89061   -28.088313 0.0044850072   -28.083828     46.41056            0            0            0     46.41056            0            0    142.23989            0    173.89061 
 4956000    19.474471 -0.0035271057    147.58733    282.92851          600          600          600 0.0029998326    15273.953 0.00013373488     167.0618   -24.849784 0.0035983819   -24.846186    44.320656            0            0            0    44.320656            0            0    155.95093            0     167.0618 
 4957000    32.554505 0.0078695509    172.69879     331.0678          600          600          600  0.028626586    15910.115 0.00013373488    205.25329   -19.644498 0.0084034514   -19.636095      52.1906            0            0            0      52.1906            0            0    230.04347            0    205.25329 
 4958000    34.786021 -0.038329389    149.92801    287.41566          600          600          600 -0.042392008    15351.548 0.00013373488    184.71403    -26.85958  0.017348306   -26.842232    61.628252            0            0            0    61.628252            0            0    63.971147            0    184.71403 
 4959000    31.413307 0.0091312439    170.64467       327.13          600          600          600  0.028969332     13481.09 0.00013373488    202.05797   -22.951159  0.010630152   -22.940529    54.353836            0            0            0    54.353836            0            0    230.82266            0    202.05797 
 4960000    27.704413 0.0060152953     154.1491     295.5076          600          600          600  0.032374766    15428.801 0.00013373488    181.85352    -23.73268 0.0040868232   -23.728593    51.433006            0            0            0    51.433006            0            0    200.80253            0    181.85352 
 4961000    31.154041 -0.0066329657     174.2912    334.12049          600          600          600 -0.019772268    14819.867 0.00013373488    205.44524   -25.305614 0.0019347281   -25.303679    56.457721            0            0            0    56.457721            0            0    184.55048            0    205.44524 
 4962000    47.447718 -0.011939503    146.01118    279.90701          600          600          600  -0.03331489    14134.276 0.00013373488     193.4589   -18.727879  0.033551562   -18.694327    66.142045            0            0            0    66.142045            0            0    155.84782            0     193.4589 
 4963000    22.320578 0.0056160753    144.34889    276.72035          600          600          600   -0.0107085    14675.867 0.00013373488    166.66947   -21.683547  0.020799196   -21.662748    43.983326            0            0            0    43.983326            0            0    184.36088            0    166.66947 
 4964000    26.992381  0.019114937    162.33202    311.19444          600          600          600  0.067324556      13254.7 0.00013373488     189.3244    -28.28077 0.0082314588   -28.272538    55.264919            0            0            0    55.264919            0            0    249.53909            0     189.3244 
 4965000    28.960903  0.023976105    156.83573    300.65793          600          600          600  0.022000718    12122.231 0.00013373488    185.79663   -27.737819  0.054339152    -27.68348    56.644383            0            0            0    56.644383            0            0    261.32468            0    185.79663 
 4966000    35.595198 -0.038807664    158.61205    304.06318          600          600          600 -0.051847023    11783.573 0.00013373488    194.20725   -26.486454   0.06181714   -26.424637    62.019835            0            0            0    62.019835            0            0    71.957738            0    194.20725 
 4967000    32.942253 0.0060944132    159.69696    306.14297          600          600          600 -0.018477043    13029.309 0.00013373488    192.63921    -22.10865  0.028244715   -22.080405    55.022658            0            0            0    55.022658            0            0    211.83746            0    192.63921 
 4968000    24.445536  0.017303016    165.99051    318.20786          600          600          600  0.020600572    13965.698 0.00013373488    190.43604   -24.362307  0.004678709   -24.357628    48.803164            0            0            0    48.803164            0            0    244.94294            0    190.43604 
 4969000    28.381492 0.0072161097    165.57069    317.40306          600          600          600  0.013741143    14640.213 0.00013373488    193.95218   -20.644562 0.0036195887   -20.640942    49.022435            0            0            0    49.022435            0            0    216.68393            0    193.95218 
 4970000     36.48333  0.010522844    156.02267    299.09927          600          600          600  0.025319078    15309.243 0.00013373488      192.506   -23.447159 0.0023940299   -23.444765    59.928094            0            0            0    59.928094            0            0    225.65442            0      192.506 
 4971000    25.327489 -0.038212278    170.25886    326.39039          600          600          600 -0.040204101     13996.97 0.00013373488    195.58635   -23.670165  0.011928876   -23.658236    48.985725            0            0            0    48.985725            0            0    75.212384            0    195.58635 
 4972000    39.136811 -0.017345066    155.28021    297.67595          600          600          600 -0.027182093    13466.546 0.00013373488    194.41702   -27.552811 0.0089288109   -27.543882    66.680694            0            0            0    66.680694            0            0    139.77766            0    194.41702 
 4973000    26.945007 -0.012847496     154.3242    295.84326          600          600          600 0.00080521938     12964.63 0.00013373488    181.26921   -29.350233  0.030843159    -29.31939    56.264397            0            0            0    56.264397            0            0    140.79781            0    181.26921 
 4974000    13.311803 -0.0056640381    164.56428    315.47375          600          600          600 0.0035641146    12076.856 0.00013373488    177.87609   -36.643765  0.014775744    -36.62899    49.940792            0            0            0    49.940792            0            0    160.03358            0    177.87609 
 4975000    16.686624 -0.015979343    153.48457    294.23368          600          600          600  -0.01088135    11488.191 0.00013373488     170.1712   -33.890929 0.0071008611   -33.883828    50.570452            0            0            0    50.570452            0            0    119.83406            0     170.1712 
 4976000    14.040642  0.022437141    155.41245    297.92946          600          600          600  0.025079308    11744.671 0.00013373488    169.45309   -30.507351 0.0017780989   -30.505573    44.546215            0            0            0    44.546215            0            0    240.13319            0    169.45309 
 4977000     22.87891 -0.0096943446    150.59216    288.68886          600          600          600 -0.019504988     11701.91 0.00013373488    173.47107   -29.286578  0.010135718   -29.276442    52.155352            0            0            0    52.155352            0            0    142.93255            0    173.47107 
 4978000     24.35914 0.0031864738    152.72534    292.77821          600          600          600 -0.0084330497    12345.556 0.00013373488    177.08448    -26.28605  0.016413402   -26.269637    50.628777            0            0            0    50.628777            0            0    187.12231            0    177.08448 
 4979000    26.198418  0.033534582    148.69789    285.05748          600          600          600  0.057102298    13698.997 0.00013373488     174.8963   -22.221579  0.047651264   -22.173927    48.372345            0            0            0    48.372345            0            0    280.53488            0     174.8963 
 4980000     29.53948 -0.038194807    157.76099    302.43167          600          600          600 -0.061467449    12878.802 0.00013373488    187.30047    -28.62926  0.011381208   -28.617878    58.157359            0            0            0    58.157359            0            0    66.981542            0    187.30047 
 4981000    29.459095   0.01748704     176.8856    339.09401          600          600          600  0.021144003    12866.358 0.00013373488    206.34469   -21.073348   0.11116935   -20.962179    50.421274            0            0            0    50.421274            0            0    261.43129            0    206.34469 
 4982000     25.06454  0.051286026    174.18016    333.90763          600          600          600  0.046254937    12760.785 0.00013373488     199.2447   -28.823005   0.01703515    -28.80597    53.870511            0            0            0    53.870511            0            0    360.80278            0     199.2447 
 4983000    33.783022 -0.0021091345    152.39665     292.1481          600          600          600 -0.031556918    13025.748 0.00013373488    186.17967   -23.045311 0.0085282661   -23.036783    56.819805            0            0            0    56.819805            0            0     179.5356            0    186.17967 
 4984000    27.666603 0.0089981094    148.41695    284.51892          600          600          600  0.016932771    11267.348 0.00013373488    176.08355   -22.956184 0.0012342749   -22.954949    50.621553            0            0            0    50.621553            0            0    204.42884            0    176.08355 
 4985000    32.581139 0.0060019514    163.61507     313.6541          600          600          600  0.011745477    13683.265 0.00013373488    196.19621   -21.249288 0.0012367102   -21.248051     53.82919            0            0            0     53.82919            0            0    215.10319            0    196.19621 
 4986000    32.002849 0.0051988641    163.35424    313.15407          600          600          600  0.037105414    13483.473 0.00013373488    195.35709   -22.710978            0   -22.710978    54.713827            0            0            0    54.713827            0            0    211.73423            0    195.35709 
 4987000    33.009717  0.025805066    145.77372    279.45179          600          600          600  0.068898198    14156.077 0.00013373488    178.78344   -15.302685            0   -15.302685    48.312402            0            0            0    48.312402            0            0    260.07297            0    178.78344 
 4988000    23.882905  0.019022044    151.84531    291.09117          600          600          600   0.02361093    14757.296 0.00013373488    175.72821   -24.848201            0   -24.848201    48.731106            0            0            0    48.731106            0            0    235.65029            0    175.72821 
 4989000    12.733633 0.0040534751    148.57565    284.82315          600          600          600  0.015684823    15352.504 0.00013373488    161.30928   -27.301177 0.0028492652   -27.298328     40.03196            0            0            0     40.03196            0            0    174.07829            0    161.30928 
 4990000    29.418604 0.0058592146    148.49674    284.67188          600          600          600 -0.00097791987    15423.751 0.00013373488    177.91534    -28.67893 0.0051506602    -28.67378    58.092383            0            0            0    58.092383            0            0    196.37268            0    177.91534 
 4991000    37.406531 -0.012206472    170.67345    327.18518          600          600          600 -0.0067931331    15192.955 0.00013373488    208.07998    -22.19916 0.0052441761   -22.193916    59.600447            0            0            0    59.600447            0            0    169.62791            0    208.07998 
 4992000    31.613429  0.033305573     161.5536     309.7022          600          600          600  0.022627672    12805.901 0.00013373488    193.16703   -23.558195 0.0037892773   -23.554406    55.167835            0            0            0    55.167835            0            0    298.08419            0    193.16703 
 4993000      31.4631 0.0084379395    134.77469    258.36637          600          600          600  0.028356208    16184.164 0.00013373488    166.23779   -18.748457 0.00080210545   -18.747655    50.210756            0            0            0    50.210756            0            0    192.81846            0    166.23779 
 4994000    31.240144  0.019768512    151.00381      289.478          600          600          600  0.014692965    15440.387 0.00013373488    182.24396   -19.864347 0.0017735863   -19.862573    51.102718            0            0            0    51.102718            0            0    244.51751            0    182.24396 
 4995000    22.217014  0.017294995    158.93343    304.67927          600          600          600 0.0053293823    15775.651 0.00013373488    181.15045   -20.562932 0.0035337931   -20.559398    42.776411            0            0            0    42.776411            0            0    235.63207            0    181.15045 
 4996000    29.384494 -0.0062931303    159.27001    305.32451          600          600          600  -0.01902217    16116.566 0.00013373488    188.65451   -24.835185 0.0024844728   -24.832701    54.217195            0            0            0    54.217195            0            0    168.83027            0    188.65451 
 4997000    31.204142 0.0047327327    158.89556    304.60666          600          600          600  0.040921502    17009.084 0.00013373488     190.0997   -22.040836            0   -22.040836    53.244977            0            0            0    53.244977            0            0    205.00846            0     190.0997 
 4998000     31.12231  -0.00654747    161.19103    309.00714          600          600          600  -0.00767895    16032.046 0.00013373488    192.31334   -21.355695 0.0009441527   -21.354751    52.477061            0            0            0    52.477061            0            0     171.6879            0    192.31334 
 4999000    16.817289  0.031558417    151.32846    290.10036          600          600          600  0.033949263    15129.984 0.00013373488    168.14575   -26.769984 0.0018774902   -26.768106    43.585395            0            0            0    43.585395            0            0    267.55913            0    168.14575 
 5000000    33.825506 0.0095739179    144.93221    277.83859          600          600          600 -0.0041369683    14449.216 0.00013373488    178.75772   -23.318552 0.0014308025   -23.317122    57.142627            0            0            0    57.142627            0            0    208.91688            0    178.75772 
Loop time of 341.249 on 1 procs for 5000000 steps with 176 atoms

Performance: 12659.381 ns/day, 0.002 hours/ns, 14652.061 timesteps/s
99.7% CPU use with 1 MPI tasks x no OpenMP threads

MPI task timing breakdown:
Section |  min time  |  avg time  |  max time  |%varavg| %total
---------------------------------------------------------------
Pair    | 209        | 209        | 209        |   0.0 | 61.24
Bond    | 8.8372     | 8.8372     | 8.8372     |   0.0 |  2.59
Neigh   | 60.191     | 60.191     | 60.191     |   0.0 | 17.64
Comm    | 4.6695     | 4.6695     | 4.6695     |   0.0 |  1.37
Output  | 0.64532    | 0.64532    | 0.64532    |   0.0 |  0.19
Modify  | 41.845     | 41.845     | 41.845     |   0.0 | 12.26
Other   |            | 16.06      |            |       |  4.71

Nlocal:        176.000 ave         176 max         176 min
Histogram: 1 0 0 0 0 0 0 0 0 0
Nghost:        91.0000 ave          91 max          91 min
Histogram: 1 0 0 0 0 0 0 0 0 0
Neighs:        2247.00 ave        2247 max        2247 min
Histogram: 1 0 0 0 0 0 0 0 0 0

Total # of neighbors = 2247
Ave neighs/atom = 12.767045
Ave special neighs/atom = 1.9886364
Neighbor list builds = 139689
Dangerous builds = 54
Total wall time: 0:05:41
