LAMMPS (10 Mar 2021)
Reading data file ...
  orthogonal box = (-300.00000 -300.00000 -300.00000) to (300.00000 300.00000 300.00000)
  1 by 1 by 1 MPI processor grid
  reading atoms ...
  83 atoms
  scanning bonds ...
  1 = max bonds/atom
  reading bonds ...
  82 bonds
Finding 1-2 1-3 1-4 neighbors ...
  special bond factors lj:    0        0        0       
  special bond factors coul:  0        0        0       
     2 = max # of 1-2 neighbors
     2 = max # of 1-3 neighbors
     4 = max # of 1-4 neighbors
     6 = max # of special neighbors
  special bonds CPU = 0.000 seconds
  read_data CPU = 0.002 seconds
Setting atom values ...
  5 settings made for charge
Setting atom values ...
  0 settings made for charge
Setting atom values ...
  11 settings made for charge
Setting atom values ...
  0 settings made for charge
Setting atom values ...
  2 settings made for charge
Setting atom values ...
  0 settings made for charge
Setting atom values ...
  1 settings made for charge
Setting atom values ...
  0 settings made for charge
Setting atom values ...
  0 settings made for charge
Setting atom values ...
  0 settings made for charge
Finding 1-2 1-3 1-4 neighbors ...
  special bond factors lj:    0        1        1       
  special bond factors coul:  0        1        1       
     2 = max # of 1-2 neighbors
     6 = max # of special neighbors
  special bonds CPU = 0.000 seconds
New timer settings: style=normal  mode=nosync  timeout=11:50:00

CITE-CITE-CITE-CITE-CITE-CITE-CITE-CITE-CITE-CITE-CITE-CITE-CITE

Your simulation uses code contributions which should be cited:

- neighbor multi command:

@Article{Intveld08,
 author =  {P.{\,}J.~in{\,}'t~Veld and S.{\,}J.~Plimpton and G.{\,}S.~Grest},
 title =   {Accurate and Efficient Methods for Modeling Colloidal
            Mixtures in an Explicit Solvent using Molecular Dynamics},
 journal = {Comp.~Phys.~Comm.},
 year =    2008,
 volume =  179,
 pages =   {320--329}
}

CITE-CITE-CITE-CITE-CITE-CITE-CITE-CITE-CITE-CITE-CITE-CITE-CITE

Neighbor list info ...
  update every 10 steps, delay 0 steps, check yes
  max neighbors/atom: 2000, page size: 100000
  master list distance cutoff = 38.5
  ghost atom cutoff = 38.5
  binsize = 8.7926654, bins = 69 69 69
  2 neighbor lists, perpetual/occasional/extra = 2 0 0
  (1) pair wf/cut, perpetual
      attributes: half, newton on
      pair build: half/multi/newton
      stencil: half/multi/3d/newton
      bin: standard
  (2) pair coul/debye, perpetual, skip from (1)
      attributes: half, newton on
      pair build: skip
      stencil: none
      bin: none
Per MPI rank memory allocation (min/avg/max) = 10.86 | 10.86 | 10.86 Mbytes
Step PotEng Press KinEng Temp Lx Ly Lz Pzz S/CPU Density 
       0    3775.4129   -2.1892486            0            0          600          600          600            0            0 6.7742992e-05 
    1000    30.008602 0.0079312622    223.55916    914.62761          600          600          600 0.0015427546     23690.61 6.7742992e-05 
    2000    20.284477 -0.0026791854    85.033091    347.88829          600          600          600 -0.0056029847    34521.873 6.7742992e-05 
    3000    13.182228 0.0013391766    67.004881    274.13109          600          600          600 0.0096594308    38410.081 6.7742992e-05 
    4000    18.076779  0.013017933    70.759138    289.49054          600          600          600  0.019176966    37038.086 6.7742992e-05 
    5000    20.554604 -0.025007241     76.60467    313.40584          600          600          600 -0.019933156     36573.98 6.7742992e-05 
    6000    20.307977 -0.0055518468    64.038267    261.99404          600          600          600 -0.012279223    37201.025 6.7742992e-05 
    7000    15.002752 -0.0039398439    79.750979    326.27806          600          600          600 -0.0055815883     37079.67 6.7742992e-05 
    8000    26.598462 0.0033931036    79.524799    325.35271          600          600          600 -0.0012226558    35593.513 6.7742992e-05 
    9000    21.953616 0.0025924445    86.122848    352.34672          600          600          600 0.0069096115    36040.971 6.7742992e-05 
   10000    14.066484 -0.0067725892    76.600476    313.38869          600          600          600 -0.0058231286    37099.021 6.7742992e-05 
   11000    18.419528 0.0091457376    85.507616    349.82967          600          600          600 -0.0028546416    37471.559 6.7742992e-05 
   12000    12.094639  0.021883902     56.30918    230.37272          600          600          600   0.02551472    34860.154 6.7742992e-05 
   13000    18.562207  0.003513116    69.127697    282.81597          600          600          600 -0.0065377092    35055.655 6.7742992e-05 
   14000    17.971091 -0.0074633667    77.935771    318.85166          600          600          600 -0.0014312554    33224.842 6.7742992e-05 
   15000    19.235187 -0.029343241    69.964486    286.23946          600          600          600 -0.031050166    34753.569 6.7742992e-05 
   16000    20.494079 -0.016256774    68.252408    279.23498          600          600          600 -0.018964513    35697.723 6.7742992e-05 
   17000     21.47436 0.0022266654    69.207312     283.1417          600          600          600   0.01421291    36824.119 6.7742992e-05 
   18000    18.492902 0.0054173875    70.196709    287.18953          600          600          600 0.0081839123    36220.242 6.7742992e-05 
   19000    21.948993 -0.012911527    69.781266    285.48986          600          600          600 -0.033313399    36065.763 6.7742992e-05 
   20000    20.167901 -0.029233398      71.9547    294.38184          600          600          600 -0.0082827051    36291.069 6.7742992e-05 
   21000    23.512872 0.0012399226    76.774658     314.1013          600          600          600 0.0015960552    33373.415 6.7742992e-05 
   22000    17.667488 -0.010611644    65.003932    265.94478          600          600          600 0.0087781674    32103.852 6.7742992e-05 
   23000    18.411287 -0.016035121    67.342015    275.51037          600          600          600 -0.022283226    31519.768 6.7742992e-05 
   24000    18.095926 -0.0094663576    64.622004    264.38223          600          600          600 -0.003460074     31139.27 6.7742992e-05 
   25000    20.703129 0.0086596756    70.082232    286.72118          600          600          600  0.014922833    31182.562 6.7742992e-05 
   26000    18.724922 -0.011807667    73.100041    299.06767          600          600          600 -0.015489304    33513.412 6.7742992e-05 
   27000    18.891725 0.0083577685    78.708059    322.01125          600          600          600 0.00022522091    31948.812 6.7742992e-05 
   28000    12.804367  0.014567373    83.702358    342.44398          600          600          600  0.011461147    31003.008 6.7742992e-05 
   29000    13.022809 0.0070908796    75.113844    307.30656          600          600          600  0.015690545    30590.349 6.7742992e-05 
   30000    13.840469  0.012850561    62.927146    257.44821          600          600          600  0.013484763     32989.13 6.7742992e-05 
   31000    24.397701 -0.007645999    76.565591    313.24597          600          600          600  0.010345177    31916.235 6.7742992e-05 
   32000    20.140476 -0.0068276309    74.218007     303.6415          600          600          600 -0.0083464935    32702.085 6.7742992e-05 
   33000    23.106098  0.011282364    75.708331    309.73874          600          600          600  0.035954182    32021.499 6.7742992e-05 
   34000    15.617339 -0.0066205995    76.636785    313.53724          600          600          600 0.0029796862    31961.229 6.7742992e-05 
   35000    11.814824  0.026933476    72.155991    295.20536          600          600          600  0.023445518    31070.299 6.7742992e-05 
   36000      11.3749 0.0017745051    69.916975    286.04508          600          600          600 0.0065512266    32388.698 6.7742992e-05 
   37000    28.483897 -0.014542287     68.21481    279.08116          600          600          600 -0.024842054    32206.154 6.7742992e-05 
   38000    25.473262 0.0088918322    76.990955    314.98622          600          600          600   0.02459803    30792.923 6.7742992e-05 
   39000    14.360506 -0.0031448668     76.02155    311.02018          600          600          600 -0.0065663778     30483.19 6.7742992e-05 
   40000    11.862752  0.026989496    58.172085    237.99425          600          600          600    0.0170796    32446.325 6.7742992e-05 
   41000    21.980283 0.0093704396    65.975088    269.91799          600          600          600 -0.0069507702    32878.709 6.7742992e-05 
   42000    9.9806572 -0.0075221893    73.922533    302.43266          600          600          600  -0.01113767    32594.333 6.7742992e-05 
   43000    16.127972 0.0059118403    62.263308    254.73231          600          600          600 0.0063719778    33117.022 6.7742992e-05 
   44000    9.3667193 0.0019243158    72.077926    294.88598          600          600          600  0.005378188     32226.94 6.7742992e-05 
   45000    17.580703 -0.00045815143    66.846734    273.48407          600          600          600 -0.0011151571    29255.102 6.7742992e-05 
   46000    12.995499 -0.0054351229    70.633496    288.97651          600          600          600 -0.017863845    30022.791 6.7742992e-05 
   47000    12.001916   -0.0168323    72.270646    295.67444          600          600          600 -0.022265443    31183.721 6.7742992e-05 
   48000    14.851439 0.0046817481    69.006931    282.32189          600          600          600  0.020600683    28665.673 6.7742992e-05 
   49000    18.309885 0.0095101905    79.335207    324.57705          600          600          600  0.017678235     25662.81 6.7742992e-05 
   50000    15.852946 0.0076081953    70.060277    286.63135          600          600          600  0.021887928    23433.961 6.7742992e-05 
   51000    8.2037438 -0.010613863    77.496699    317.05532          600          600          600 -0.0068059543    25076.551 6.7742992e-05 
   52000    16.554881 0.0063551618    77.057094    315.25681          600          600          600 0.0092770314    26162.239 6.7742992e-05 
   53000    13.804974  0.019410453    82.941237    339.33007          600          600          600  0.015320384    26144.464 6.7742992e-05 
   54000    25.160446 0.0090431746    79.060443    323.45293          600          600          600 -0.0025094688    25935.592 6.7742992e-05 
   55000    11.704919 -0.0012797243    75.841791    310.28475          600          600          600  0.019161404    29939.212 6.7742992e-05 
   56000     8.320473 -0.010022092    76.007223    310.96156          600          600          600 -0.021064679    32037.887 6.7742992e-05 
   57000    24.884388 0.0097984894    74.989054    306.79602          600          600          600  0.023494839    31053.967 6.7742992e-05 
   58000    27.866132 -0.010762138    78.471823    321.04476          600          600          600 0.0048084275    30318.809 6.7742992e-05 
   59000    14.957481  0.006669046    75.395593    308.45925          600          600          600 0.0010642157    27662.534 6.7742992e-05 
   60000    14.823794 -0.0087188397    79.194309     324.0006          600          600          600 -0.021399656    29549.005 6.7742992e-05 
   61000    23.791922 -1.6877405e-05    86.806349    355.14306          600          600          600 -0.0052734083    28414.769 6.7742992e-05 
   62000     22.14528 -0.017606596    63.979976    261.75556          600          600          600 -0.027653401     26256.41 6.7742992e-05 
   63000    13.692019 0.0089358603    68.120662    278.69598          600          600          600 0.0056287659    26210.141 6.7742992e-05 
   64000    11.423707 -0.0065211364    63.538437    259.94913          600          600          600 -0.0069133392    26117.927 6.7742992e-05 
   65000    12.300634 -0.017911601    79.038921    323.36488          600          600          600 -0.025150741    25499.769 6.7742992e-05 
   66000    14.085312 -0.0097959681    90.453749    370.06535          600          600          600 0.0051286097    26767.312 6.7742992e-05 
   67000    12.027042 0.0039885883    74.534373    304.93582          600          600          600 0.0061456381    27564.184 6.7742992e-05 
   68000     11.67346 -0.0017509836    67.678194    276.88575          600          600          600 -0.0090157865      24274.7 6.7742992e-05 
   69000    12.481869 0.0070457763    76.176771    311.65522          600          600          600 0.0024464146    23992.953 6.7742992e-05 
   70000    28.790784 -0.022552063    66.324283    271.34661          600          600          600 -0.015165542    25817.139 6.7742992e-05 
   71000    12.562474 0.0090523247    82.033718    335.61722          600          600          600  -0.01375696    28547.828 6.7742992e-05 
   72000    18.552222 -0.0032639704    73.710708    301.56604          600          600          600 -0.019034918    30977.821 6.7742992e-05 
   73000    19.597216 0.0052857281    75.477165    308.79298          600          600          600 0.0059157803    32476.976 6.7742992e-05 
   74000    21.871986 -0.023292996    73.713157    301.57606          600          600          600 -0.0046906542     34352.51 6.7742992e-05 
   75000    21.437665   -0.0130435     85.43107    349.51651          600          600          600   -0.0162854    34178.671 6.7742992e-05 
   76000    20.847135 0.0024124635    68.326051    279.53627          600          600          600  0.010653181    33987.019 6.7742992e-05 
   77000    18.473679 -0.0089698835     63.78851    260.97223          600          600          600 -0.015648139    34456.645 6.7742992e-05 
   78000    27.294932 -0.022659861    70.039585     286.5467          600          600          600 -0.028484672    35897.536 6.7742992e-05 
   79000    17.094204  0.013168656    70.215359    287.26583          600          600          600 -0.006998556    33965.276 6.7742992e-05 
   80000    16.802538 -0.024454725    79.422346    324.93355          600          600          600  -0.01180799    32689.341 6.7742992e-05 
   81000    12.591437 -0.0031006962    81.574131    333.73696          600          600          600 -0.0075672407    31196.245 6.7742992e-05 
   82000    10.740139  0.012195295    75.948261    310.72034          600          600          600 0.00079812144    30090.638 6.7742992e-05 
   83000    19.601213 0.0030536954    81.736419    334.40091          600          600          600 0.0090528429    32032.748 6.7742992e-05 
   84000     24.28295  0.004966928    82.385421    337.05612          600          600          600 -0.0011990112    30905.235 6.7742992e-05 
   85000    19.585625 -5.8091821e-05    65.911672    269.65854          600          600          600  0.016436052    30395.269 6.7742992e-05 
   86000    14.899959 -0.0039801141    61.056982    249.79698          600          600          600  0.001728761    30268.048 6.7742992e-05 
   87000    11.723197  0.002970917    65.870574     269.4904          600          600          600 -0.0055471895    30773.945 6.7742992e-05 
   88000    22.135109 -0.025716492    85.382819     349.3191          600          600          600 -0.034322523    30587.672 6.7742992e-05 
   89000    17.390436 0.0003405421     89.34829    365.54268          600          600          600 -0.005596444    31985.602 6.7742992e-05 
   90000    15.203786 -0.0030916073    75.873775     310.4156          600          600          600 0.0037213494    31783.458 6.7742992e-05 
   91000    14.926029 0.0038957828    62.966901    257.61086          600          600          600  0.012399561    31538.729 6.7742992e-05 
   92000    25.858771 -0.013691336    67.890915    277.75604          600          600          600 -0.025656255      34519.6 6.7742992e-05 
   93000    20.291826 0.00072045436    73.121635    299.15601          600          600          600 -0.0028535156    34735.437 6.7742992e-05 
   94000    20.422215 -0.023940509    83.092237    339.94785          600          600          600 0.0060245235    34424.688 6.7742992e-05 
   95000    14.143361 -0.0091898228    74.213685    303.62382          600          600          600  -0.01359785    31410.949 6.7742992e-05 
   96000    17.880712 0.0015438448    72.276196    295.69714          600          600          600 -0.019876106    30044.512 6.7742992e-05 
   97000    18.800336  0.023512467    73.257254    299.71086          600          600          600  0.025014576    29450.659 6.7742992e-05 
   98000    20.937026 -0.010689647    77.530247    317.19257          600          600          600 -0.032277965    30149.688 6.7742992e-05 
   99000    16.637352 -0.0028065782    79.417649    324.91433          600          600          600  0.011064883    29176.549 6.7742992e-05 
  100000     10.67745 -0.010627085    77.388819    316.61396          600          600          600 -0.0081673265    29819.588 6.7742992e-05 
  101000    11.390692 -0.0028450008    78.043812    319.29368          600          600          600 -0.0093775465    29310.915 6.7742992e-05 
  102000    20.562607 -0.00021673804    73.394096    300.27071          600          600          600  0.011711132    28567.272 6.7742992e-05 
  103000     17.02383 -0.011393029    90.487141    370.20196          600          600          600 0.0034936115    24773.364 6.7742992e-05 
  104000    23.098368 -0.032997651    61.214724    250.44233          600          600          600 -0.026752668    26204.737 6.7742992e-05 
  105000    20.206298 0.0033099955    71.693259    293.31223          600          600          600 0.0036870021    29113.767 6.7742992e-05 
  106000    18.698388 0.0048221615    89.629004    366.69114          600          600          600  0.014545532    30100.572 6.7742992e-05 
  107000    18.479832 -0.012557422    81.535056    333.57709          600          600          600 -0.026286501     29389.37 6.7742992e-05 
  108000    27.941013 -0.013898165    66.147964    270.62526          600          600          600 -0.020057574    28354.261 6.7742992e-05 
  109000    11.677004  0.013198884    70.591587    288.80506          600          600          600   0.01057153    28596.682 6.7742992e-05 
  110000    15.535074 -0.00072457369    77.334357    316.39115          600          600          600 -0.010027974    27104.092 6.7742992e-05 
  111000     20.58031 -0.012613985    68.562673    280.50434          600          600          600 -0.0056860983    26570.949 6.7742992e-05 
  112000    12.706554 -0.015726308    62.389842    255.24999          600          600          600 -0.017714187    26422.144 6.7742992e-05 
  113000    14.025391 -0.0056529409    65.264687    267.01159          600          600          600 -0.0031609477    23880.662 6.7742992e-05 
  114000    21.731744  0.012136522    75.585153    309.23479          600          600          600  -0.01215323    25987.497 6.7742992e-05 
  115000    16.419918 0.0087261985    80.524285    329.44182          600          600          600 -0.0094158239    28018.999 6.7742992e-05 
  116000    21.120899 -0.021049753    67.805443    277.40635          600          600          600 -0.053426932    30741.916 6.7742992e-05 
  117000    16.571984 -0.034182241    64.598307    264.28528          600          600          600 -0.025672183    29395.344 6.7742992e-05 
  118000    16.694733 -0.011894115    66.591695    272.44065          600          600          600 -0.022499264    29067.966 6.7742992e-05 
  119000    18.062262 0.0067996973    72.933865    298.38781          600          600          600  0.038323946    30642.869 6.7742992e-05 
  120000    17.029844 -0.011864156    69.363681    283.78144          600          600          600 -0.0040491804     32072.92 6.7742992e-05 
  121000     23.30197 -0.0039471659    82.640908    338.10137          600          600          600 -0.00026607643    34303.062 6.7742992e-05 
  122000    17.151206 -0.015960697    77.193847    315.81629          600          600          600 -0.023805591    32569.024 6.7742992e-05 
  123000    13.902492 -0.013418771    70.040516    286.55051          600          600          600 0.0010133791    30068.851 6.7742992e-05 
  124000    22.439051  0.015287407    68.209805    279.06068          600          600          600  0.015736562    30992.241 6.7742992e-05 
  125000    12.345194 -0.0013103291    63.131741    258.28525          600          600          600 -0.0064490703     30774.17 6.7742992e-05 
  126000    16.909231 -0.016874133    72.677486    297.33891          600          600          600 -0.021646927    29574.424 6.7742992e-05 
  127000    11.067612  0.018104421     87.71942    358.87863          600          600          600 0.0078902774    27967.993 6.7742992e-05 
  128000    10.429191  0.033356216    78.425673    320.85595          600          600          600  0.032271254    29172.491 6.7742992e-05 
  129000    10.646819 -0.016585442    85.661215    350.45808          600          600          600 -0.020032459     29455.83 6.7742992e-05 
  130000    16.388352 -0.025365665    77.824627    318.39695          600          600          600 -0.032727415     29053.67 6.7742992e-05 
  131000    14.113706 -0.0096596238    59.248203    242.39688          600          600          600  0.018362765    30715.576 6.7742992e-05 
  132000    21.046403 0.0059458516    58.229418    238.22882          600          600          600 -0.004327313    32848.067 6.7742992e-05 
  133000    16.043392 -0.010978434    83.890662    343.21437          600          600          600 -0.00074391917    31532.801 6.7742992e-05 
  134000     10.23165 -0.0085725403    84.760037    346.77117          600          600          600 -0.0087959769    30232.486 6.7742992e-05 
  135000     15.69921 -0.0025684346    71.654171    293.15231          600          600          600 -0.0077838859    29470.732 6.7742992e-05 
  136000    14.450563  0.015223745    71.697562    293.32983          600          600          600 0.0029323305    29941.991 6.7742992e-05 
  137000    16.848726 0.0033496125    79.862472     326.7342          600          600          600  0.016226776    31610.512 6.7742992e-05 
  138000    16.113972 0.0074757873    77.454087    316.88099          600          600          600 -0.00043097647     31188.59 6.7742992e-05 
  139000    12.281615 -0.017813117    67.289525    275.29563          600          600          600 -0.0086000061    29614.726 6.7742992e-05 
  140000    11.089471 0.00083645288    61.149565    250.17575          600          600          600 -0.0051406359    30025.585 6.7742992e-05 
  141000    6.4500927  0.004982575    76.923491    314.71021          600          600          600 0.00016469268    29291.878 6.7742992e-05 
  142000    19.260039 0.0012183265    66.234957    270.98117          600          600          600 0.0053688061    30626.983 6.7742992e-05 
  143000    9.2459798 -0.007518621    79.505748    325.27476          600          600          600 -0.0034129272    31082.042 6.7742992e-05 
  144000    20.549153  0.012382909    77.875925    318.60682          600          600          600 -0.011205997    29875.662 6.7742992e-05 
  145000    15.416615 -0.0089317338    80.657975    329.98877          600          600          600 0.0040871951    29561.293 6.7742992e-05 
  146000    22.033244  0.020640483    66.382342    271.58415          600          600          600  0.011175544    31879.605 6.7742992e-05 
  147000    16.392698 0.0038590207    66.153728    270.64884          600          600          600  0.029134751    32327.039 6.7742992e-05 
  148000    19.561613 -0.011293137    68.598247    280.64988          600          600          600 -0.0082610487    30646.452 6.7742992e-05 
  149000    13.056166 0.0063498345    74.270658    303.85691          600          600          600 0.0097730973    31545.845 6.7742992e-05 
  150000    17.141731  0.015777815    66.271651    271.13129          600          600          600 0.0087813285    33944.385 6.7742992e-05 
  151000    11.150557  0.014152556    78.778744    322.30044          600          600          600 0.0092563296     32504.41 6.7742992e-05 
  152000    9.6119033 -0.010410271    67.161998    274.77388          600          600          600 -0.011617552    31357.876 6.7742992e-05 
  153000    16.192144 -0.001957341    65.771932    269.08683          600          600          600 -0.011676478    34092.272 6.7742992e-05 
  154000    11.332793   0.01419835    64.440789    263.64084          600          600          600  0.012751761    33561.681 6.7742992e-05 
  155000    18.540791 -0.00058598593    76.415172    312.63057          600          600          600 -0.020085062    31815.764 6.7742992e-05 
  156000    17.740753 -0.0092058192     72.91955    298.32924          600          600          600 -0.011734112     31778.16 6.7742992e-05 
  157000    15.683706  0.032886384    80.577707    329.66038          600          600          600  0.016364541    29726.597 6.7742992e-05 
  158000    17.141266 -0.0047630803    78.455647    320.97858          600          600          600  0.017593847    29086.713 6.7742992e-05 
  159000    20.823962  0.022669811     72.03275    294.70116          600          600          600  0.028813363    31223.649 6.7742992e-05 
  160000    11.431342  0.012101442     77.56328    317.32772          600          600          600   0.03006911    31947.839 6.7742992e-05 
  161000    12.553647 -0.013813308    70.480883    288.35214          600          600          600 0.0031239093     28988.81 6.7742992e-05 
  162000    10.057324 -0.014380675    71.062979    290.73362          600          600          600 -0.0084526802    26928.165 6.7742992e-05 
  163000    9.2430325  0.010126113    71.145444      291.071          600          600          600 0.00029625642    25463.389 6.7742992e-05 
  164000    16.814183 -0.011734383     73.18634    299.42074          600          600          600 -0.0048778668    25919.405 6.7742992e-05 
  165000    19.230046 -0.0051495395    65.579915    268.30125          600          600          600 0.0015469713    27489.933 6.7742992e-05 
  166000    15.763823 -0.022268703    70.584349    288.77544          600          600          600 -0.015993079     25961.92 6.7742992e-05 
  167000    22.449341 -0.0049712026    78.828597     322.5044          600          600          600 -0.024283401    25843.864 6.7742992e-05 
  168000      18.9155 -0.0053552088    79.271972    324.31834          600          600          600 -0.0077489107    27932.976 6.7742992e-05 
  169000    20.402173  0.004338336    81.133398    331.93383          600          600          600 0.0089346765    29965.093 6.7742992e-05 
  170000    19.220053 -0.020408899    69.706967    285.18589          600          600          600 -0.025551499    31895.848 6.7742992e-05 
  171000    7.5812272  0.011036258    86.280353     352.9911          600          600          600  0.011195754    30434.086 6.7742992e-05 
  172000    19.728446 0.0025901719     77.02483    315.12481          600          600          600  0.017174857    30096.036 6.7742992e-05 
  173000    18.642403 -0.040205601    71.296575    291.68931          600          600          600 -0.039298996    30595.035 6.7742992e-05 
  174000    27.405149 0.0033190332    62.057723    253.89122          600          600          600  0.024051735    31899.972 6.7742992e-05 
  175000    16.507492  0.004693944     85.51379    349.85493          600          600          600 -0.0040423703    33427.941 6.7742992e-05 
  176000     15.26657  0.009511153    64.139005    262.40618          600          600          600 0.0045099768    30883.389 6.7742992e-05 
  177000    14.218583 0.0011489438    73.025797    298.76392          600          600          600   0.00537635    30664.376 6.7742992e-05 
  178000    14.745048 -0.0062622422    77.760636    318.13514          600          600          600 -0.004679928    30410.916 6.7742992e-05 
  179000    16.943277 -0.040468218    61.260157    250.62821          600          600          600 -0.060993123    29501.203 6.7742992e-05 
  180000    2.5314535 -0.0069485504    80.977292    331.29516          600          600          600 -0.0067916334    25940.244 6.7742992e-05 
  181000    15.049713 0.0011606187    74.786131    305.96582          600          600          600 0.0021380633    26160.934 6.7742992e-05 
  182000    13.766122 -0.0064823248    70.384977    287.95977          600          600          600 -0.0067122453        25758 6.7742992e-05 
  183000    15.399814 -0.030501728    78.855448    322.61425          600          600          600 -0.026041443    26319.183 6.7742992e-05 
  184000    17.273125  0.019832328    83.709355    342.47261          600          600          600  0.030077549    28167.461 6.7742992e-05 
  185000    15.928093 -0.0096655752    72.279985    295.71265          600          600          600 -0.020055407    28603.313 6.7742992e-05 
  186000    9.7272678  0.006842212    83.667276    342.30046          600          600          600  0.020302258    27171.693 6.7742992e-05 
  187000    17.288646 0.0057766815    67.496518    276.14248          600          600          600  0.022099389    24580.273 6.7742992e-05 
  188000    17.176995   0.01468495     69.74425    285.33842          600          600          600 0.0036614847    26406.175 6.7742992e-05 
  189000    13.767058 -0.011392121    64.642169    264.46473          600          600          600 -0.022855272    28854.198 6.7742992e-05 
  190000    4.6761462  0.016174252    77.080605      315.353          600          600          600  0.024395273    28273.221 6.7742992e-05 
  191000    22.709213 -0.033796522    70.282814     287.5418          600          600          600 -0.025508165    28666.457 6.7742992e-05 
  192000    26.123924 -0.014776272    80.831559    330.69894          600          600          600  0.016711606    29883.751 6.7742992e-05 
  193000    16.078792 -0.012249452    64.169961    262.53283          600          600          600 0.0093571627    31012.636 6.7742992e-05 
  194000    18.133546  0.002823084    75.412944    308.53024          600          600          600 0.0033606904    30276.351 6.7742992e-05 
  195000    11.477122  0.021068134    73.832013    302.06232          600          600          600  0.024116584    26618.502 6.7742992e-05 
  196000    13.757963 -0.0064754848    73.785498    301.87202          600          600          600 -0.027613097    25730.664 6.7742992e-05 
  197000    22.696272 -0.0085240525    70.223429    287.29884          600          600          600 -0.0012959235    26730.806 6.7742992e-05 
  198000    7.3951148 0.0023738898    72.223454    295.48137          600          600          600 0.0077985686    24709.149 6.7742992e-05 
  199000    14.116825 0.0020174927    71.583891    292.86478          600          600          600  0.013252992    25712.208 6.7742992e-05 
  200000    15.590635  0.011850478     67.41419    275.80565          600          600          600  0.022002211    25976.713 6.7742992e-05 
  201000    13.106739  0.011377231    70.430746    288.14702          600          600          600  0.038855779    27499.666 6.7742992e-05 
  202000    20.216608 -0.0095084194    79.267298    324.29922          600          600          600 -0.0038809687    26783.037 6.7742992e-05 
  203000    15.317734 0.00092040661    88.207478    360.87538          600          600          600  0.010139199     27549.88 6.7742992e-05 
  204000    12.588499  0.003352318    73.384394    300.23102          600          600          600 -0.0065373473    27656.332 6.7742992e-05 
  205000    12.173942  0.011661583       69.126    282.80903          600          600          600  0.017626721    27394.951 6.7742992e-05 
  206000    18.298343 -0.0078015667    65.172156    266.63302          600          600          600 -0.0058575836    28864.325 6.7742992e-05 
  207000    12.983371 0.0037573687    81.615723    333.90712          600          600          600 -0.004984737    27908.628 6.7742992e-05 
  208000    12.185881 -0.0031232565    80.868335     330.8494          600          600          600  0.013842287    28095.574 6.7742992e-05 
  209000    20.491575  0.010373117    76.045341    311.11751          600          600          600  0.029241383    27300.624 6.7742992e-05 
  210000    18.537774 -0.0029459844    73.792662    301.90133          600          600          600 -0.015568889    28904.307 6.7742992e-05 
  211000    12.145191 0.0094938514    78.985721    323.14723          600          600          600  0.020605935     27270.98 6.7742992e-05 
  212000    18.931651 0.0061518903    70.651347    289.04954          600          600          600  0.019145474    26680.984 6.7742992e-05 
  213000    6.3541132  0.014178512    69.657158    284.98211          600          600          600  0.027504912    26970.761 6.7742992e-05 
  214000     15.01332  0.017123176    75.788706    310.06757          600          600          600  0.023444751    26766.629 6.7742992e-05 
  215000    8.0365804  0.013515838    79.209022     324.0608          600          600          600  0.013091831    25904.037 6.7742992e-05 
  216000    13.034637 -0.0066933487    72.735826    297.57759          600          600          600 0.0037913984    24870.167 6.7742992e-05 
  217000    18.767096 -0.028810177    82.569303    337.80841          600          600          600 -0.043067691    26134.201 6.7742992e-05 
  218000    15.737036  0.015273768    74.539486    304.95674          600          600          600  0.019053491    26083.656 6.7742992e-05 
  219000     15.98488 -0.013109972    63.413266    259.43703          600          600          600 -0.016850121     25490.78 6.7742992e-05 
  220000    17.745459 -0.0010831708    81.029137    331.50727          600          600          600 0.00011214065    27387.438 6.7742992e-05 
  221000    17.031654  0.016051602    74.956679    306.66357          600          600          600 0.0033375769    25189.653 6.7742992e-05 
  222000    15.330514  -0.01066997    77.092639    315.40223          600          600          600 -0.025812478    25940.886 6.7742992e-05 
  223000     8.370502 -0.011331248    64.740665     264.8677          600          600          600 0.00021915491    23790.855 6.7742992e-05 
  224000    14.942272 -0.020448958    79.925604    326.99249          600          600          600 -0.012596811      24250.7 6.7742992e-05 
  225000    19.399623 -0.028742661    74.072365    303.04565          600          600          600 -0.021017597    23484.082 6.7742992e-05 
  226000    16.708058 0.0028716032    86.456353    353.71116          600          600          600 -0.0085310692    25476.381 6.7742992e-05 
  227000    8.2601827   0.02316421      77.3891    316.61512          600          600          600  0.014283532    25563.022 6.7742992e-05 
  228000    16.255068 0.0091847098    71.615919    292.99581          600          600          600 -0.0037439419    25321.042 6.7742992e-05 
  229000    14.648982 0.0044268523    65.632128    268.51486          600          600          600  0.021294743    27176.094 6.7742992e-05 
  230000    22.330108  0.011567259     73.44561    300.48147          600          600          600  0.012261775    27389.048 6.7742992e-05 
  231000    15.260567  0.014309783    75.705051    309.72531          600          600          600  0.006213436    26335.874 6.7742992e-05 
  232000     18.91964 -0.014679754    71.341288    291.87224          600          600          600 -0.022511613    27134.076 6.7742992e-05 
  233000    18.275981  -0.01407894     72.26465    295.64991          600          600          600 -0.010994964    28487.527 6.7742992e-05 
  234000    26.150285 -0.017376644    66.552591    272.28067          600          600          600 -0.020169346    31053.047 6.7742992e-05 
  235000     19.14354 0.0091828064    82.699344    338.34044          600          600          600 -0.0032704705    28889.177 6.7742992e-05 
  236000    19.368196 2.5372393e-05    73.162834    299.32457          600          600          600  0.015599767    26538.669 6.7742992e-05 
  237000    13.780787  0.013578608    79.289922    324.39178          600          600          600  0.016008945    25890.606 6.7742992e-05 
  238000     16.14394 -0.0065101195    58.504577    239.35455          600          600          600 -0.0090667402    25212.972 6.7742992e-05 
  239000    14.391191 0.0055425015    71.512363    292.57214          600          600          600 0.0071172981    25554.612 6.7742992e-05 
  240000    15.553951 -0.010672878    70.623261    288.93464          600          600          600  -0.01612342    27791.572 6.7742992e-05 
  241000    16.542664  0.012070358    69.077032    282.60869          600          600          600  0.012443555    28456.795 6.7742992e-05 
  242000     9.217864  0.005348122    80.990471    331.34908          600          600          600  0.016773173    29636.698 6.7742992e-05 
  243000    9.8935651 -0.009124375    70.477793     288.3395          600          600          600 -0.016412261    28669.788 6.7742992e-05 
  244000    19.097869 -0.016802549    65.937509    269.76424          600          600          600 -0.00092945412    29650.735 6.7742992e-05 
  245000    18.085955  -0.02025345    72.528078    296.72765          600          600          600 -0.012857303    30616.475 6.7742992e-05 
  246000     21.04875 -0.0093429007    70.424653    288.12209          600          600          600 -0.018604129    31700.822 6.7742992e-05 
  247000    19.206565 -0.0075069995    80.439375    329.09443          600          600          600 -0.0087442992    31474.355 6.7742992e-05 
  248000     21.97033  0.009885437    78.262313    320.18761          600          600          600  0.009137873    32565.736 6.7742992e-05 
  249000    19.125577 0.0053638229    70.986123    290.41919          600          600          600   0.04589458    31616.469 6.7742992e-05 
  250000    11.443417 0.0092995008    85.406071    349.41423          600          600          600 0.0099260113    28733.226 6.7742992e-05 
  251000    22.509105 -0.0068099988    67.517074    276.22658          600          600          600 -0.014839208    29519.474 6.7742992e-05 
  252000    12.397156 -0.019935801    82.433276     337.2519          600          600          600 -0.020268222    28738.936 6.7742992e-05 
  253000    20.178111 0.0029502873    69.221594    283.20013          600          600          600  0.014690195    27727.636 6.7742992e-05 
  254000    11.549361  0.012848624    74.984875    306.77892          600          600          600  0.012008731    28454.479 6.7742992e-05 
  255000    24.684212 -0.025839618    75.568402    309.16625          600          600          600 -0.0044139966    28618.731 6.7742992e-05 
  256000    19.943154  0.019966012    69.804104     285.5833          600          600          600  0.029535161    28181.845 6.7742992e-05 
  257000    17.005519    0.0205203    77.601873    317.48561          600          600          600   0.03755393     25716.78 6.7742992e-05 
  258000    13.542952  0.013139592    60.667702    248.20435          600          600          600  0.022081457    26546.396 6.7742992e-05 
  259000    12.884965 -0.00042252765    68.451596     280.0499          600          600          600 -0.0076631479    26607.695 6.7742992e-05 
  260000    14.410218 -0.0038036432    70.971937    290.36115          600          600          600 0.0096256024    26195.245 6.7742992e-05 
  261000    14.736054 0.0024627278    84.878045    347.25397          600          600          600 0.0069563561    25703.542 6.7742992e-05 
  262000    22.905423 -0.013835289    80.816984    330.63931          600          600          600 -0.030364816    25925.493 6.7742992e-05 
  263000    18.119609 -0.002188942    77.004531    315.04176          600          600          600 -0.028672975    26265.453 6.7742992e-05 
  264000    18.926763 -0.0048409554     76.80751    314.23571          600          600          600 -0.039091468    28520.845 6.7742992e-05 
  265000    16.617715  0.013201225     76.47204    312.86323          600          600          600 -0.0094802353    28585.378 6.7742992e-05 
  266000    14.671718 -0.0087428499    76.938118    314.77005          600          600          600 -0.00058695692    26444.467 6.7742992e-05 
  267000    20.003926 -0.0051184373    68.337561    279.58336          600          600          600  0.011891663    27679.328 6.7742992e-05 
  268000     20.20523 -0.024960732     65.42771    267.67855          600          600          600 -0.023346344    27112.151 6.7742992e-05 
  269000    15.505012 -0.004851449     83.44025    341.37164          600          600          600 -0.0013249136     26370.48 6.7742992e-05 
  270000    21.966383 0.0055698642    70.621817    288.92873          600          600          600  0.015833438    23852.143 6.7742992e-05 
  271000    17.985635 -0.015899354    78.794784    322.36606          600          600          600 -0.014298366    26066.797 6.7742992e-05 
  272000    24.235311 -0.017151561    63.948998    261.62882          600          600          600 -0.019712908    28066.246 6.7742992e-05 
  273000    16.386542  0.011901158    74.016922    302.81882          600          600          600 0.0021526679    27099.539 6.7742992e-05 
  274000    14.793459 -0.024318342    74.539108    304.95519          600          600          600 -0.028706312    26864.349 6.7742992e-05 
  275000    17.199729  0.012443707    71.317889    291.77651          600          600          600   0.02644754    25774.621 6.7742992e-05 
  276000    21.261404 -0.0020619516    74.257501    303.80308          600          600          600 -0.018482835    25319.666 6.7742992e-05 
  277000    23.748768 -0.040631479    71.417249    292.18301          600          600          600 -0.034714396    23189.478 6.7742992e-05 
  278000    18.637131  -0.01313215    66.306372    271.27334          600          600          600 -0.010355207    23350.855 6.7742992e-05 
  279000    31.329258 0.00058729663    73.097429    299.05698          600          600          600 -0.0011814828    23450.469 6.7742992e-05 
  280000    10.231434 0.0095946262    63.422847    259.47623          600          600          600  0.016341285    24609.261 6.7742992e-05 
  281000    4.8446623   0.01610582    84.383119    345.22912          600          600          600  0.019162571    22403.436 6.7742992e-05 
  282000    12.909695 0.0039676102    92.316819    377.68756          600          600          600 0.0097694045    22016.304 6.7742992e-05 
  283000    10.548843  -0.01275463    70.044883    286.56837          600          600          600 -0.010043977    23546.573 6.7742992e-05 
  284000     15.16802 -0.023088355    73.490753    300.66615          600          600          600  -0.01608905    25187.687 6.7742992e-05 
  285000    9.6239657 -0.009580489    73.616451    301.18041          600          600          600 -0.028495608    25477.619 6.7742992e-05 
  286000    17.452518 -0.006752037    71.043457    290.65375          600          600          600 0.0051260591    26244.089 6.7742992e-05 
  287000    13.764957 0.0034668152     75.72293    309.79846          600          600          600 -0.015730096    28115.914 6.7742992e-05 
  288000    20.208405 0.0040706224    62.156543    254.29551          600          600          600 -0.010444568    26474.512 6.7742992e-05 
  289000    13.270562  0.010642702    80.333187    328.65999          600          600          600 -0.011711686    27786.417 6.7742992e-05 
  290000     14.39434  0.026044425    70.177814    287.11222          600          600          600  0.024513379    27909.557 6.7742992e-05 
  291000     12.95074 -0.001578869    71.442386    292.28585          600          600          600 -0.0095274268     28886.59 6.7742992e-05 
  292000    8.1930239  0.015752096     82.06287    335.73649          600          600          600 -0.0040030366    29145.327 6.7742992e-05 
  293000    14.275911  0.011800922    73.435508    300.44014          600          600          600  0.042328265    30022.791 6.7742992e-05 
  294000    17.790665  0.013509991    72.280386    295.71429          600          600          600 -0.0061694079    32668.972 6.7742992e-05 
  295000    14.384038 0.0014500783    65.578843    268.29686          600          600          600 0.0061141203    30981.711 6.7742992e-05 
  296000    10.391111   -0.0182639    66.020082    270.10207          600          600          600 -0.014802175    30539.121 6.7742992e-05 
  297000    14.798876 -0.010207862    84.867406    347.21044          600          600          600 0.0032008459    30183.318 6.7742992e-05 
  298000    21.921809 -0.045414717     69.89908    285.97187          600          600          600 -0.036282796    28472.056 6.7742992e-05 
  299000    16.103625 -0.019821786    75.523552    308.98276          600          600          600 -0.027117691    29427.311 6.7742992e-05 
  300000    18.981123 0.0013913779    71.845356    293.93449          600          600          600  0.030030036    30623.181 6.7742992e-05 
  301000    20.863094  -0.02035912    60.804734    248.76498          600          600          600 -0.0011964703    31077.206 6.7742992e-05 
  302000    10.679715 -0.010193373    76.499771    312.97668          600          600          600 -0.0046705763    30376.778 6.7742992e-05 
  303000    18.988097 0.0029435091    73.585561    301.05403          600          600          600 0.0044369312    29016.486 6.7742992e-05 
  304000    13.760958  0.010776435    83.778509    342.75553          600          600          600  0.012848672    29777.882 6.7742992e-05 
  305000    21.317387   0.01050551     83.28052    340.71816          600          600          600 0.00087661355    31142.045 6.7742992e-05 
  306000    14.544275 -0.012561307    75.249249    307.86053          600          600          600 -0.034734971    31072.371 6.7742992e-05 
  307000    14.024771 -0.0093747727    69.386026    283.87285          600          600          600 -0.031047774    30548.241 6.7742992e-05 
  308000    28.097174 -0.0096469508    61.269596    250.66683          600          600          600 0.0058222281    29260.204 6.7742992e-05 
  309000    18.537509 -0.0049596118    90.966864    372.16461          600          600          600 0.0011435221     29573.59 6.7742992e-05 
  310000    18.560756 -0.013940073    89.880109    367.71846          600          600          600 -0.026055986    28494.107 6.7742992e-05 
  311000    10.922761 -0.0034468432    73.214147     299.5345          600          600          600 -0.014135544    31108.092 6.7742992e-05 
  312000     18.70653 -0.018443616    77.085001    315.37098          600          600          600 -0.037683976    31855.151 6.7742992e-05 
  313000    14.215595 -0.0078277028    74.970089    306.71843          600          600          600  -0.01527532    28750.559 6.7742992e-05 
  314000    23.091518 -0.010447538    76.901148     314.6188          600          600          600 -0.0053326361    28895.944 6.7742992e-05 
  315000    22.713451 -0.010895842    77.775037    318.19406          600          600          600 -0.0070634931    30323.193 6.7742992e-05 
  316000    11.683981 0.0051021845     67.14322    274.69706          600          600          600 -8.3084812e-05    31258.787 6.7742992e-05 
  317000    20.787681 -0.0041256715    67.259381     275.1723          600          600          600 -0.029617284      31601.7 6.7742992e-05 
  318000    24.583463 -0.0040160279    66.239484    270.99969          600          600          600  0.012921368    29717.541 6.7742992e-05 
  319000    13.752427 -0.0018089528    73.360304    300.13246          600          600          600 -0.0018230775    28711.001 6.7742992e-05 
  320000    20.243553 -0.0024175717    76.777273      314.112          600          600          600  0.011231957    28894.152 6.7742992e-05 
  321000    14.655247 -0.0011033727    81.517752     333.5063          600          600          600 0.00018902357    28160.275 6.7742992e-05 
  322000    15.868373  0.023026134     92.17129    377.09217          600          600          600  0.024118539     29584.02 6.7742992e-05 
  323000    16.355549  0.018931604    74.657695    305.44036          600          600          600  0.018974893      31362.8 6.7742992e-05 
  324000    24.067899 -0.014998127    77.043781    315.20234          600          600          600 0.0029731472    33359.877 6.7742992e-05 
  325000    19.235174 -0.0074591741    73.872286    302.22709          600          600          600 -0.017877343    31691.719 6.7742992e-05 
  326000    21.674709 0.0031492374    71.709873     293.3802          600          600          600  0.016196237    32109.996 6.7742992e-05 
  327000    20.654374 -0.0028878586    78.204564    319.95135          600          600          600 -0.0016994797    32266.359 6.7742992e-05 
  328000    17.692835 0.0096424863    70.234183    287.34284          600          600          600 -0.0041071695    30410.916 6.7742992e-05 
  329000    18.424421 -0.0084420099    66.876482    273.60578          600          600          600 -0.0058926076    31290.969 6.7742992e-05 
  330000    18.334217 -0.012319274    80.788606    330.52321          600          600          600 -0.016284203    32734.498 6.7742992e-05 
  331000    13.443726  0.039705738    91.020996    372.38607          600          600          600  0.036400329    31553.676 6.7742992e-05 
  332000    17.183262 -0.003749404     76.21736    311.82128          600          600          600  0.010796088    33363.327 6.7742992e-05 
  333000    19.457371 -0.016960914    76.582472    313.31503          600          600          600 -0.011146351    32952.068 6.7742992e-05 
  334000    16.703139 -0.0022573918    84.778254     346.8457          600          600          600 -0.0027392515    33767.845 6.7742992e-05 
  335000    17.606539 -0.0011909165    65.708979    268.82928          600          600          600 -0.013222279    32371.949 6.7742992e-05 
  336000    8.8840535 -0.0073613903    82.006514    335.50593          600          600          600  0.016844154    31656.558 6.7742992e-05 
  337000    12.734132 0.0048176717    70.995492    290.45752          600          600          600 -0.0018574136    29718.594 6.7742992e-05 
  338000    20.785378 -0.010345129    79.996197    327.28129          600          600          600 -0.015996159    29341.877 6.7742992e-05 
  339000    19.150441  0.018326546    75.672682    309.59289          600          600          600 0.0051646529    28227.744 6.7742992e-05 
  340000    21.771974 -0.0017325996    78.696945    321.96578          600          600          600 -0.016129619    27596.102 6.7742992e-05 
  341000    7.6857048 0.0025168474     75.91593    310.58807          600          600          600  0.013947945    28400.339 6.7742992e-05 
  342000    15.793587   -0.0163271    72.318344    295.86958          600          600          600 -0.016120914    29272.253 6.7742992e-05 
  343000    16.090221 0.0049629302    79.442587    325.01636          600          600          600 -0.0077140803    29903.352 6.7742992e-05 
  344000    20.354416 -0.011444926    70.283393    287.54417          600          600          600 -0.0020093409    30966.614 6.7742992e-05 
  345000       19.587 -0.016757325    72.427327    296.31545          600          600          600 -0.0058464363    29533.193 6.7742992e-05 
  346000    18.617297 0.0026372563    61.922843     253.3394          600          600          600 -0.0067280815    27632.828 6.7742992e-05 
  347000    20.883127 -0.0028928872    73.831337    302.05955          600          600          600 -0.008227506    31063.626 6.7742992e-05 
  348000    18.640555 0.0063113119     87.58214    358.31699          600          600          600 0.0094193198    31118.708 6.7742992e-05 
  349000    11.859337 -0.0084565171    75.253328    307.87722          600          600          600 -0.012170027    29152.012 6.7742992e-05 
  350000    18.094878  0.011731387    76.426783    312.67807          600          600          600 -0.00086741549    26699.327 6.7742992e-05 
  351000    16.098534 -0.028547727    77.252522    316.05634          600          600          600 -0.032180243    25746.616 6.7742992e-05 
  352000    15.791116 -0.010970684    86.509798    353.92981          600          600          600 0.0046163452    29302.315 6.7742992e-05 
  353000    13.821392  0.016895604    76.091898    311.30799          600          600          600  0.011775899    29614.726 6.7742992e-05 
  354000    14.658042 -0.0060738434    67.414883    275.80849          600          600          600 0.0072336347    31103.247 6.7742992e-05 
  355000    21.690338 -0.011161485    69.109925    282.74326          600          600          600 -0.016704429        30672 6.7742992e-05 
  356000    17.464311  0.021275765    80.093505     327.6794          600          600          600  0.026367932    30703.209 6.7742992e-05 
  357000    13.067439 -0.0076863702    76.740095     313.9599          600          600          600 -0.014569819    30015.486 6.7742992e-05 
  358000    18.882875 -0.0089275157    65.044205    266.10955          600          600          600 0.0024677143    27411.602 6.7742992e-05 
  359000    9.9907615 -0.0017155397     79.68138    325.99331          600          600          600 0.0062258414    27854.323 6.7742992e-05 
  360000    13.384364  0.029419405    60.650255    248.13297          600          600          600  0.024226384    24006.136 6.7742992e-05 
  361000    16.130737 -0.011601135    65.645471    268.56945          600          600          600 -0.0033895265    25493.414 6.7742992e-05 
  362000    17.217577 -0.017126849    77.613713    317.53405          600          600          600 -0.018266864    24389.601 6.7742992e-05 
  363000    8.3029837  0.007361812      82.7373    338.49573          600          600          600  0.020438197    24434.357 6.7742992e-05 
  364000    17.438579 0.0068474069    64.366948    263.33875          600          600          600  0.021976779    24719.343 6.7742992e-05 
  365000    8.9945327 0.0087659808    68.400512    279.84091          600          600          600 0.0035163701    24980.072 6.7742992e-05 
  366000    11.457429  0.001783651    69.710589    285.20071          600          600          600 0.0011255446    26733.702 6.7742992e-05 
  367000    17.603769  0.017732685    78.107216    319.55308          600          600          600 0.0048066833     26994.89 6.7742992e-05 
  368000    15.304997  0.015962713    71.882605    294.08688          600          600          600  0.016428087    24703.037 6.7742992e-05 
  369000    11.479358  0.014846583    74.816788    306.09124          600          600          600  0.024942375     23332.28 6.7742992e-05 
  370000    12.628142  0.010555014    88.046866    360.21828          600          600          600 0.0087144077    21468.406 6.7742992e-05 
  371000    16.152945  0.012360188    68.010972    278.24721          600          600          600  0.012889179    23533.362 6.7742992e-05 
  372000    14.566374 0.00074641906    73.230409    299.60103          600          600          600 0.0021957397    24639.041 6.7742992e-05 
  373000    11.459855 0.0030886074    81.627364    333.95475          600          600          600 -0.00012528468    25765.121 6.7742992e-05 
  374000    11.314364   0.00691321    80.171965     328.0004          600          600          600 -0.011409762    26804.604 6.7742992e-05 
  375000    16.311279 0.0092528585     77.08541    315.37265          600          600          600 -0.011197334    22754.198 6.7742992e-05 
  376000    22.840639 -0.017564761    65.682122     268.7194          600          600          600 -0.0072944278    23988.287 6.7742992e-05 
  377000    19.863589 -0.008060143    70.129498    286.91455          600          600          600 -0.0039358944    25220.098 6.7742992e-05 
  378000     20.99635 -0.00095868623    80.632007    329.88253          600          600          600 0.0027191559    26860.736 6.7742992e-05 
  379000    10.548279 0.0072810784    68.558517    280.48734          600          600          600 -0.026205071    27987.775 6.7742992e-05 
  380000     22.70968 -0.015007558    69.885733    285.91726          600          600          600 -0.0068891768    28564.743 6.7742992e-05 
  381000    26.675417  0.021448835    69.295097    283.50084          600          600          600  0.021681057    27444.784 6.7742992e-05 
  382000    20.737416  0.010069286    65.448541    267.76377          600          600          600 -0.011860668    25490.626 6.7742992e-05 
  383000    17.007511 -0.023293744    76.711436    313.84265          600          600          600 -0.020878152    27710.782 6.7742992e-05 
  384000    12.515854 -0.0065998612    68.380192    279.75777          600          600          600 0.0040843502    26234.404 6.7742992e-05 
  385000    20.247092  0.001817085    67.579857    276.48343          600          600          600 -0.0029165911    26271.541 6.7742992e-05 
  386000    26.591844 -0.027128485    63.295029     258.9533          600          600          600 -0.0039927495    27786.969 6.7742992e-05 
  387000    15.201453 0.0065882571    69.897034    285.96349          600          600          600 0.00066107889    26946.157 6.7742992e-05 
  388000    11.800917 -0.0080498594    62.177567    254.38153          600          600          600 -0.033780944    24799.144 6.7742992e-05 
  389000    18.028262  0.017927971    75.306722    308.09567          600          600          600  0.014813611     25118.15 6.7742992e-05 
  390000     11.41545 -0.014318173    80.838483    330.72727          600          600          600 -0.047015602    26264.631 6.7742992e-05 
  391000    19.550497 0.0025687487    72.842303    298.01321          600          600          600  0.024175919    26901.222 6.7742992e-05 
  392000    16.361726  0.042155028    68.755786    281.29441          600          600          600  0.017693867    27125.302 6.7742992e-05 
  393000    18.327174 0.0082510445    54.697465    223.77886          600          600          600 -0.0048954318    28557.547 6.7742992e-05 
  394000    21.815622 -0.029782767    71.962931    294.41551          600          600          600 -0.046319861     30031.82 6.7742992e-05 
  395000    18.406765 -0.0030262729    68.191345    278.98516          600          600          600 -0.0088495098    29960.598 6.7742992e-05 
  396000    22.272337 -0.023747047    81.944991    335.25422          600          600          600 -0.011113208    30310.483 6.7742992e-05 
  397000    16.836196 0.00072985784    80.639877    329.91473          600          600          600 -0.006218028    30730.429 6.7742992e-05 
  398000    18.611323 0.0054094592    73.984965    302.68808          600          600          600  0.034153386    30260.842 6.7742992e-05 
  399000    14.313271  0.014444504    72.385904    296.14598          600          600          600  0.025431449    29198.892 6.7742992e-05 
  400000    19.494814 -0.011668291    77.234414    315.98226          600          600          600 -0.0083402951    28352.536 6.7742992e-05 
  401000    18.914861 -0.030472663     73.69609    301.50623          600          600          600 -0.029134678    29888.223 6.7742992e-05 
  402000    10.308204 0.0032342445    77.286421    316.19503          600          600          600 0.0012990178    29567.544 6.7742992e-05 
  403000    16.316657 0.0076160145    75.504602    308.90523          600          600          600  0.013349258    31695.791 6.7742992e-05 
  404000    16.427118 -0.0072960327    86.033111    351.97958          600          600          600 -0.0096348807    30829.816 6.7742992e-05 
  405000    15.430733  0.018079567    68.814263    281.53365          600          600          600  0.021422729    33007.563 6.7742992e-05 
  406000    20.194124 -0.0059230345     68.02215    278.29295          600          600          600 -0.020778836     34062.37 6.7742992e-05 
  407000    26.568152 -0.0083238063    84.010451    343.70446          600          600          600 -0.0027169733    32745.999 6.7742992e-05 
  408000    13.430578 0.0048845919    80.690512    330.12188          600          600          600  0.018620338     30298.44 6.7742992e-05 
  409000    13.733104  0.013641937    81.439943    333.18797          600          600          600 0.0071787139    28406.686 6.7742992e-05 
  410000    12.519795 0.0098917758    81.196372    332.19147          600          600          600  0.014324251    26816.257 6.7742992e-05 
  411000    8.3379802 0.0061852064    68.737902    281.22124          600          600          600  0.015679162    29189.341 6.7742992e-05 
  412000    11.038025 0.0095565699    69.085852    282.64478          600          600          600  0.012902512     30511.13 6.7742992e-05 
  413000    17.155265   0.01391116    75.276796    307.97323          600          600          600 -0.0036718117    29792.053 6.7742992e-05 
  414000    19.400488 -0.010286771    70.345973     287.8002          600          600          600 -0.003501681    28515.997 6.7742992e-05 
  415000    13.678407 -0.020559192    65.479828    267.89177          600          600          600 -0.0029018584    28847.451 6.7742992e-05 
  416000    18.520228 -0.025784081    65.833722    269.33963          600          600          600 -0.0046159015    25864.582 6.7742992e-05 
  417000    17.369005  0.019723385    70.644609    289.02198          600          600          600   0.02847553    25925.493 6.7742992e-05 
  418000    11.685655 -0.012320841    63.734575    260.75157          600          600          600  0.001457059    26292.291 6.7742992e-05 
  419000    14.907452  0.016394704    75.246887    307.85087          600          600          600  0.034326687      25080.9 6.7742992e-05 
  420000    14.045377  0.011639154    68.778842    281.38874          600          600          600   0.01220127    26384.581 6.7742992e-05 
  421000    20.052596   0.01412606    79.249789    324.22759          600          600          600    0.0115725    25739.348 6.7742992e-05 
  422000    14.251197  0.022864801    72.360431    296.04177          600          600          600  0.017980117    27002.189 6.7742992e-05 
  423000     20.11422 -0.020476446    80.222123    328.20561          600          600          600 -0.020087632    28315.785 6.7742992e-05 
  424000    15.296474  0.022909636     78.50633    321.18594          600          600          600  0.034576887     25718.83 6.7742992e-05 
  425000      13.8449 -0.004674189    69.108426    282.73713          600          600          600 -0.014184678     27400.32 6.7742992e-05 
  426000    14.870321  0.018891653    83.769657    342.71932          600          600          600  0.030045675    28308.523 6.7742992e-05 
  427000     8.632845 0.0060686638    70.814961    289.71892          600          600          600 0.0097265444     27102.34 6.7742992e-05 
  428000    29.065293 0.0043494587    76.880606    314.53476          600          600          600 -0.0055350567    26011.188 6.7742992e-05 
  429000    17.946138 -0.022995318    67.703237    276.98821          600          600          600 -0.038440519    27512.653 6.7742992e-05 
  430000     13.23062 -0.0043331573     73.88784    302.29072          600          600          600 0.0036501042    28101.786 6.7742992e-05 
  431000    15.066435 -0.0050221676    73.155038    299.29267          600          600          600 0.0038799671    25844.501 6.7742992e-05 
  432000    13.698012  0.011369107    76.274625    312.05556          600          600          600  0.012670416    27660.162 6.7742992e-05 
  433000     12.57614 -0.0022228002    83.747807    342.62992          600          600          600  0.018019357    28902.514 6.7742992e-05 
  434000    13.883674 -0.00038880546    79.084203    323.55014          600          600          600 0.0014181627    31246.212 6.7742992e-05 
  435000    16.670737 0.0017119237    61.381654    251.12528          600          600          600 0.0012502623    31296.806 6.7742992e-05 
  436000    18.648332 -0.020920763    76.223556    311.84663          600          600          600  -0.01229515    29995.952 6.7742992e-05 
  437000    15.445186    0.0259099    82.190542    336.25882          600          600          600  0.040689029    29880.983 6.7742992e-05 
  438000    5.6250456 -0.00094461359    66.187405    270.78662          600          600          600 -0.014708159      29158.7 6.7742992e-05 
  439000    18.323753 -0.0051238307    79.577978    325.57027          600          600          600 0.0080508578    28529.963 6.7742992e-05 
  440000    13.285424 -0.0091780289    82.479496      337.441          600          600          600 -0.0029339954    29529.866 6.7742992e-05 
  441000    15.857163 -0.0044213491    73.849007    302.13185          600          600          600 0.0029280192    28209.518 6.7742992e-05 
  442000    17.492726  0.010655531    76.846246    314.39418          600          600          600  0.023341471    27897.862 6.7742992e-05 
  443000    20.082915  0.018206708    77.156258    315.66251          600          600          600 0.0074992718    27842.859 6.7742992e-05 
  444000    13.715285 0.0077531191    72.444879    296.38726          600          600          600  0.015874047    25648.216 6.7742992e-05 
  445000     15.42692  0.012987401    69.112091    282.75212          600          600          600  0.020468179    26725.866 6.7742992e-05 
  446000    10.394958 -0.0025493993    79.965093    327.15404          600          600          600 -0.0058127418    25194.495 6.7742992e-05 
  447000    14.247526 -0.015688802    68.507384    280.27814          600          600          600  0.016664034    27126.003 6.7742992e-05 
  448000    18.103037  0.009853508     72.49969    296.61151          600          600          600 -0.0020313468    26683.021 6.7742992e-05 
  449000    15.284273  0.010344928    80.091698    327.67201          600          600          600 0.0045856412    28595.123 6.7742992e-05 
  450000     7.089956   0.02227083    78.276439     320.2454          600          600          600  0.010512446    25801.892 6.7742992e-05 
  451000     17.04487 0.0063139495    78.604964    321.58947          600          600          600 -0.011442411    25941.046 6.7742992e-05 
  452000    16.313757 -0.025673445     82.18891    336.25215          600          600          600 -0.037254389    27496.601 6.7742992e-05 
  453000    10.324241 -0.011732026    82.387782    337.06577          600          600          600 -0.025844888    25663.438 6.7742992e-05 
  454000    17.894518 -0.013207285    72.155674    295.20406          600          600          600 -0.017988014    26612.084 6.7742992e-05 
  455000    9.6749783 -1.8933536e-05    62.654454    256.33257          600          600          600 -0.0021699382    27089.212 6.7742992e-05 
  456000    14.105406  0.010780364     66.63463    272.61631          600          600          600   0.01959694    27414.468 6.7742992e-05 
  457000    8.2216364 -0.0085164733    73.184379    299.41272          600          600          600 -0.006771572    25784.603 6.7742992e-05 
  458000    16.027119 -0.005939792    76.145811    311.52855          600          600          600 0.0034353721    28654.902 6.7742992e-05 
  459000    17.512101 0.00035577608    79.576351    325.56362          600          600          600  0.014646349    31102.094 6.7742992e-05 
  460000    16.326242 -0.0093463406    66.617035    272.54432          600          600          600  -0.00827163    29307.638 6.7742992e-05 
  461000    21.650325  0.012714068    75.213314    307.71351          600          600          600   0.01354307     27042.23 6.7742992e-05 
  462000    17.331145 -0.0036572524     77.49147    317.03393          600          600          600 -0.0097613051    27322.498 6.7742992e-05 
  463000    14.296232  0.011484692    86.123449    352.34917          600          600          600 0.0096712119    28231.734 6.7742992e-05 
  464000    16.705388 -0.0096251595    73.182123    299.40349          600          600          600 -0.0049439891    29099.426 6.7742992e-05 
  465000    12.975613 -0.0063937827    65.032677    266.06238          600          600          600 -0.0098427869    29997.668 6.7742992e-05 
  466000    15.809773   0.01328219    76.390033    312.52772          600          600          600  0.010389587    29815.985 6.7742992e-05 
  467000     17.24744 -0.018365508    67.826132      277.491          600          600          600 -0.0012240206    28630.257 6.7742992e-05 
  468000    19.281859 -0.021819644    76.947133    314.80693          600          600          600 -0.035081525    27563.459 6.7742992e-05 
  469000    15.065118  0.031767984     75.80315    310.12666          600          600          600  0.033360103    25896.041 6.7742992e-05 
  470000    11.668896 -0.0071543894     69.40346    283.94418          600          600          600 0.0077897515    26348.282 6.7742992e-05 
  471000    22.375392  0.016219849    76.948801    314.81376          600          600          600  0.013353178    26673.179 6.7742992e-05 
  472000    18.506957  0.014250284    94.318531    385.87698          600          600          600  0.048172257     27322.32 6.7742992e-05 
  473000    21.072857 0.0030598343    78.497805    321.15106          600          600          600 -0.023188718    28327.068 6.7742992e-05 
  474000    14.725073  0.022359651    78.262679    320.18911          600          600          600   0.02856858    28582.067 6.7742992e-05 
  475000    13.718639  0.018623728    70.481797    288.35588          600          600          600  0.010376929    29403.999 6.7742992e-05 
  476000    22.718918 -0.0084936618    59.495865    243.41012          600          600          600 -0.028412508    31855.151 6.7742992e-05 
  477000     14.44285  0.018823417    66.919974    273.78372          600          600          600  0.018597465    28951.192 6.7742992e-05 
  478000    23.881959  -0.01300025    66.140831    270.59607          600          600          600  -0.01814127    29196.249 6.7742992e-05 
  479000    16.488851 -0.027590343    75.392409    308.44623          600          600          600 -0.037250166     27710.05 6.7742992e-05 
  480000    18.223189 -0.0041740352     67.02939    274.23136          600          600          600 -0.011328026    26804.604 6.7742992e-05 
  481000     13.75145 -0.0032227662    81.269831      332.492          600          600          600 -0.024817819    27063.518 6.7742992e-05 
  482000    17.221642 -0.0041741518    81.481037    333.35609          600          600          600 -0.019869457    28352.727 6.7742992e-05 
  483000    19.099745 -0.0034854673     75.01646    306.90814          600          600          600 -0.0037897331    29663.946 6.7742992e-05 
  484000    19.288751 -0.014839363    81.278297    332.52664          600          600          600 -0.028020582    29240.622 6.7742992e-05 
  485000    17.754162 -0.0027132512    75.952933    310.73945          600          600          600 0.0014066255    30432.982 6.7742992e-05 
  486000    9.8065065 -0.0079063794    69.322438     283.6127          600          600          600 -0.036185203    31657.753 6.7742992e-05 
  487000     15.69875  0.025555033    65.560372     268.2213          600          600          600   0.03997469    30666.169 6.7742992e-05 
  488000    23.563255  0.023903267    62.463806    255.55259          600          600          600  0.025124931    31940.784 6.7742992e-05 
  489000    18.055235 0.0060035683     63.40952    259.42171          600          600          600 0.0059754958    33933.949 6.7742992e-05 
  490000    22.949761 0.0035257518    71.880792    294.07947          600          600          600 0.0097575154    32805.162 6.7742992e-05 
  491000    22.911938 -0.0010048553    87.078616    356.25696          600          600          600 -0.018423265     32803.11 6.7742992e-05 
  492000    19.471504 0.0021386372    94.682262    387.36508          600          600          600 -0.017965773     33120.16 6.7742992e-05 
  493000    13.403323 0.0017744585    82.130115    336.01161          600          600          600  0.014816913    32375.198 6.7742992e-05 
  494000    13.421469  -0.02075267    63.287227    258.92138          600          600          600 -0.031962764    33489.596 6.7742992e-05 
  495000    13.668269 -0.004673007    70.528383    288.54647          600          600          600  -0.01016256    33110.225 6.7742992e-05 
  496000    15.549273  -0.02184609    61.647674    252.21362          600          600          600 -0.022473074    31622.667 6.7742992e-05 
  497000     14.21424 0.0089335367    81.811548    334.70828          600          600          600 0.0030191334    30665.497 6.7742992e-05 
  498000    16.649073 0.0072958884    83.407648    341.23826          600          600          600 0.00021613989    29705.334 6.7742992e-05 
  499000    24.402934 0.0064332486    71.150279    291.09078          600          600          600  0.033062498    29675.279 6.7742992e-05 
  500000    24.624879 0.0018455737    72.830668    297.96561          600          600          600  0.023380964    27891.739 6.7742992e-05 
  501000    14.986809  0.002269315    73.300324    299.88707          600          600          600 -0.010267131    29956.961 6.7742992e-05 
  502000    17.377961 -0.024476474    69.907795    286.00752          600          600          600 -0.042680877    30054.415 6.7742992e-05 
  503000    17.088365  -0.01374631    74.143911    303.33836          600          600          600  0.011519148    30140.588 6.7742992e-05 
  504000    15.169318 -0.0070749116    70.580193    288.75844          600          600          600 -0.027595657    29400.495 6.7742992e-05 
  505000    18.791243 -0.012849259    77.533229    317.20478          600          600          600 -0.0054672534    28494.881 6.7742992e-05 
  506000    19.980751  0.002125846    62.553096    255.91789          600          600          600  0.022651288    30047.095 6.7742992e-05 
  507000    15.136014  -0.01252684    66.972188    273.99733          600          600          600 -0.00033947795    29478.603 6.7742992e-05 
  508000    27.537791 -0.0076657676    63.606289    260.22673          600          600          600 -0.010270296    27914.943 6.7742992e-05 
  509000    20.333053 -0.0029612459    66.967868    273.97966          600          600          600 -0.016129675    29274.909 6.7742992e-05 
  510000    17.567377  0.013404502    83.218107    340.46281          600          600          600 0.0011815387    29108.716 6.7742992e-05 
  511000    17.838132 -0.012938378    80.002188    327.30581          600          600          600 -0.0027057062    28829.209 6.7742992e-05 
  512000    18.793248 -0.017757821    71.741217    293.50843          600          600          600 -0.0048718304    30266.301 6.7742992e-05 
  513000    21.932998 0.0062671634    75.139802    307.41276          600          600          600 0.0053744903    29218.419 6.7742992e-05 
  514000    17.728719 -0.025675768    83.755909    342.66307          600          600          600 -0.017397429    26610.734 6.7742992e-05 
  515000    14.743242  0.025598596    76.723739    313.89298          600          600          600  0.038025147    26981.692 6.7742992e-05 
  516000    18.172923  0.010017812    69.375963    283.83168          600          600          600  0.020435031    28426.901 6.7742992e-05 
  517000    16.605253 -0.011936968    77.761769    318.13978          600          600          600 0.0057183664    29627.905 6.7742992e-05 
  518000    17.808318 -0.00042467115    80.367924    328.80211          600          600          600 -0.00057905311    29121.449 6.7742992e-05 
  519000    15.224397 0.0090817607    79.434784    324.98444          600          600          600 0.0060843536    28654.902 6.7742992e-05 
  520000    16.921299 0.00050380921    76.300537    312.16157          600          600          600 -0.0047781099    27932.976 6.7742992e-05 
  521000    6.7218088   0.03166231    90.594334    370.64051          600          600          600  0.027584542    27218.949 6.7742992e-05 
  522000    19.811468 0.0060907766    90.148665    368.81718          600          600          600 0.0058243336     27467.25 6.7742992e-05 
  523000    21.909655  -0.01222994    75.678936    309.61847          600          600          600 -0.014359034    28165.192 6.7742992e-05 
  524000    11.472424  0.002651983    71.849251    293.95043          600          600          600 0.0023109332    29612.844 6.7742992e-05 
  525000    15.287267   0.03448672     82.07605    335.79041          600          600          600  0.017021074    30533.341 6.7742992e-05 
  526000    14.541693 0.0030132874    71.431122    292.23977          600          600          600 -0.020491251    30076.182 6.7742992e-05 
  527000    15.429034 -0.011980486    80.193051    328.08667          600          600          600 -0.0020833381    29206.415 6.7742992e-05 
  528000    23.688379 -0.043620116    66.633377    272.61119          600          600          600 -0.038219092     28573.11 6.7742992e-05 
  529000    6.2343511 -0.011056459    73.331979    300.01658          600          600          600 -0.00065835604    27213.122 6.7742992e-05 
  530000    16.472926 -0.00057311532    81.398418    333.01808          600          600          600 -0.0035336962    27238.216 6.7742992e-05 
  531000    11.186676 0.0028273623    68.799129    281.47173          600          600          600 0.0091076686    28251.891 6.7742992e-05 
  532000    8.9445598  0.011905864    72.225455    295.48955          600          600          600  0.015027211    28084.287 6.7742992e-05 
  533000    12.011421  -0.01882266    79.040948    323.37317          600          600          600 -0.023812555    28429.406 6.7742992e-05 
  534000    14.307987 0.0035944556    77.405779    316.68335          600          600          600 0.0099173282    27939.861 6.7742992e-05 
  535000    13.674453 -0.012231848    85.417415    349.46064          600          600          600 0.00081712021    26456.477 6.7742992e-05 
  536000    12.818615  0.021423802     74.12971    303.28026          600          600          600  0.021593329    27756.995 6.7742992e-05 
  537000    16.848168 -0.016003169    78.594275    321.54574          600          600          600  -0.02424091    28632.016 6.7742992e-05 
  538000    16.935874 -0.0026527862    71.358899    291.94429          600          600          600  0.010703342     30718.95 6.7742992e-05 
  539000    15.677562 0.0068565435    92.675648     379.1556          600          600          600 0.0081593382    29577.135 6.7742992e-05 
  540000    8.5908781 -0.0011573078    69.051234    282.50315          600          600          600  0.019429361    27434.911 6.7742992e-05 
  541000    7.1223854  0.015372476    74.014385    302.80844          600          600          600  0.018749874    25683.081 6.7742992e-05 
  542000    11.984348 0.0013435891    75.981423    310.85601          600          600          600 -0.014603977    25612.193 6.7742992e-05 
  543000    9.1493943 -0.011337191    83.212511    340.43992          600          600          600 -0.018499929    25516.678 6.7742992e-05 
  544000    12.631423 0.00089318145    74.475256    304.69396          600          600          600   0.01950599    27897.862 6.7742992e-05 
  545000     15.11639 0.00040136175    71.600855    292.93418          600          600          600  0.024986863    28196.812 6.7742992e-05 
[...]
 4869000    21.923915 -0.0064780119    74.311021    304.02205          600          600          600 0.0013264848    32180.208 6.7742992e-05 
 4870000    23.679339 0.0087873903    81.638132     333.9988          600          600          600 0.0013363518    31413.066 6.7742992e-05 
 4871000    15.918142  0.030425916    79.343583    324.61131          600          600          600 0.0064826872    31793.336 6.7742992e-05 
 4872000    20.039384 0.0099059345    77.682399    317.81506          600          600          600  0.022178215    30335.255 6.7742992e-05 
 4873000    12.360274 -0.0048759103    70.542481    288.60415          600          600          600 0.0079392987     32009.28 6.7742992e-05 
 4874000    17.789217 0.0086792764    71.741009    293.50758          600          600          600 -0.0027474668    34039.149 6.7742992e-05 
 4875000    17.219582 0.0044382261    73.422935     300.3887          600          600          600  0.011637281    31681.665 6.7742992e-05 
 4876000    17.191188  -0.02372668    74.458652    304.62604          600          600          600 -0.032031049    31345.924 6.7742992e-05 
 4877000    21.373032 -0.010057222    72.855137    298.06572          600          600          600 0.0017085733    31343.113 6.7742992e-05 
 4878000    17.688299 -0.0042447972    71.428149    292.22761          600          600          600 -0.016783156    31724.799 6.7742992e-05 
 4879000    14.762028 -0.019733553    60.433631    247.24672          600          600          600 -0.014866923    33101.602 6.7742992e-05 
 4880000    17.205132 -0.0040777642     76.62421    313.48579          600          600          600 -0.0073226309    34189.258 6.7742992e-05 
 4881000    17.201329 -0.0030893466    80.868643    330.85066          600          600          600 -0.0033434295    33859.164 6.7742992e-05 
 4882000    20.790338 0.00029104843    76.051791     311.1439          600          600          600 -0.0075798287    32056.496 6.7742992e-05 
 4883000    23.525132 -0.014445846    62.294207    254.85872          600          600          600 -0.016533367    32350.976 6.7742992e-05 
 4884000    24.808092  0.018859831     69.53897    284.49858          600          600          600  0.035924894    31248.074 6.7742992e-05 
 4885000    18.702829 -0.012119285    80.957249    331.21316          600          600          600 -0.015958509    31222.487 6.7742992e-05 
 4886000    25.528024 0.0065353506    77.492165    317.03677          600          600          600  0.027967472    31388.383 6.7742992e-05 
 4887000    8.8940186  0.017714799    85.786943    350.97246          600          600          600  0.011529684    29432.473 6.7742992e-05 
 4888000    23.905712 -0.020081956    68.096172    278.59579          600          600          600 0.0022439938    28961.188 6.7742992e-05 
 4889000    24.233251 0.00074245692    78.340523    320.50758          600          600          600  0.010099399    29529.034 6.7742992e-05 
 4890000     11.58201 -0.0085807889    67.432463    275.88041          600          600          600 -0.0040400893    29267.146 6.7742992e-05 
 4891000     19.18846 0.0040134272    80.451172    329.14269          600          600          600 7.7851041e-05    32842.923 6.7742992e-05 
 4892000    26.389009 -0.0012019798    71.799002    293.74485          600          600          600 -0.018598561    33129.055 6.7742992e-05 
 4893000    21.866205 -0.0084153797    81.775393    334.56036          600          600          600 0.0041199948    33123.561 6.7742992e-05 
 4894000     18.06947  0.010581359    82.030877     335.6056          600          600          600  0.015585527    33130.102 6.7742992e-05 
 4895000    23.378324 -0.023218563    73.554565    300.92722          600          600          600 -0.0037702428    32858.103 6.7742992e-05 
 4896000     20.58929 0.0024772931    79.994724    327.27527          600          600          600  0.020864869    33747.196 6.7742992e-05 
 4897000    22.016204  0.019915761    74.766708    305.88635          600          600          600  0.019396183    34047.163 6.7742992e-05 
 4898000    25.989806 -0.0025579861    72.834709    297.98214          600          600          600 -0.0010326519    33960.601 6.7742992e-05 
 4899000    18.664862  0.020645495    82.208936    336.33408          600          600          600  0.039382745    33443.667 6.7742992e-05 
 4900000    22.015978 -0.013562065    69.255715    283.33972          600          600          600   -0.0292267    34515.907 6.7742992e-05 
 4901000    17.901287 -0.0011680085    63.456257    259.61292          600          600          600 -0.0003470767    33128.008 6.7742992e-05 
 4902000    25.504022 -0.0035375191    78.605614    321.59213          600          600          600 0.00034856684    35345.755 6.7742992e-05 
 4903000    18.134881  0.012497214    87.597635    358.38038          600          600          600  0.027759666    34239.496 6.7742992e-05 
 4904000    15.703571 0.0062134542    74.974564    306.73674          600          600          600 1.2997312e-05    33293.412 6.7742992e-05 
 4905000    24.063793 -0.021782103    74.682191    305.54058          600          600          600 -0.026420655    33130.102 6.7742992e-05 
 4906000    19.420893 -0.0089539196    80.883459    330.91127          600          600          600 -0.014829786    34013.754 6.7742992e-05 
 4907000    20.188841 0.00065833043    67.755757    277.20308          600          600          600 -0.014115637    33045.791 6.7742992e-05 
 4908000    10.613693 0.0063130348    71.636223    293.07888          600          600          600 -0.005883858    34391.381 6.7742992e-05 
 4909000    18.705787 -0.021232173    78.059662    319.35853          600          600          600   -0.0188922    34157.795 6.7742992e-05 
 4910000    22.016211 0.0027012612    74.259173    303.80992          600          600          600 -0.0010746751    34091.163 6.7742992e-05 
 4911000    21.755926  0.002864083     66.53873    272.22396          600          600          600 -0.013688341    35962.171 6.7742992e-05 
 4912000    24.135438 0.0022041527    65.965067    269.87699          600          600          600 0.0014268261    35945.221 6.7742992e-05 
 4913000    14.792504 0.0021498015    66.643209    272.65141          600          600          600 0.0062920467    34988.396 6.7742992e-05 
 4914000    22.561435  0.013467689    77.994626    319.09245          600          600          600 0.0033205245    33885.699 6.7742992e-05 
 4915000    23.377995 -0.014634249    70.170626    287.08281          600          600          600 -0.016042732    35381.833 6.7742992e-05 
 4916000    12.594615 0.0032582511    80.974298    331.28291          600          600          600 0.0084076604     35175.31 6.7742992e-05 
 4917000    14.869659 0.0055003436    80.609675    329.79117          600          600          600  -0.01379258    31819.867 6.7742992e-05 
 4918000    19.344617  0.023999961    70.103922    286.80992          600          600          600  0.033473333    31352.953 6.7742992e-05 
 4919000     15.87921 0.0022264158    83.901146    343.25727          600          600          600  0.028031846    32879.482 6.7742992e-05 
 4920000     16.42919  0.022059204     74.94847    306.62998          600          600          600    0.0349287    31934.704 6.7742992e-05 
 4921000    26.297527 -0.0068655145    74.050903    302.95785          600          600          600 -0.013871386    32565.736 6.7742992e-05 
 4922000    22.623208 -0.0011443242    65.928993     269.7294          600          600          600 -0.017831136    31460.426 6.7742992e-05 
 4923000    10.713605 -0.011294457    73.164991    299.33339          600          600          600 0.0064486288    31046.381 6.7742992e-05 
 4924000    26.246464 -0.025261775    70.467933    288.29916          600          600          600  -0.02907984    31951.733 6.7742992e-05 
 4925000     18.74421 -0.027062938    72.673155    297.32119          600          600          600 -0.0082318471    31304.981 6.7742992e-05 
 4926000     14.12807 -0.011383812    74.410089    304.42735          600          600          600 -0.015480305    30572.512 6.7742992e-05 
 4927000     25.81774 -0.023959909    64.891428     265.4845          600          600          600 -0.020565657    31515.979 6.7742992e-05 
 4928000    19.324344 -0.0040593766    81.998407    335.47276          600          600          600  0.008553351    32094.517 6.7742992e-05 
 4929000    13.863205  0.032832538     81.22856    332.32315          600          600          600  0.012315135     33081.76 6.7742992e-05 
 4930000    15.081738 -0.013288367    71.115964    290.95039          600          600          600 -0.0037352557    30339.863 6.7742992e-05 
 4931000    16.380821 -0.016697346    74.809637    306.06199          600          600          600 0.0020585065    29910.603 6.7742992e-05 
 4932000    14.683379 0.00099055685    70.947406    290.26079          600          600          600 -0.013475444    29298.835 6.7742992e-05 
 4933000    24.571165 -0.0042518495    65.256294    266.97725          600          600          600 -0.0047570222    30373.918 6.7742992e-05 
 4934000    19.965605 0.0034300841    69.538111    284.49506          600          600          600  0.013143226    30837.523 6.7742992e-05 
 4935000    22.442973 0.0077743984    81.008478    331.42275          600          600          600 0.0089916097    29393.696 6.7742992e-05 
 4936000    17.717376  0.022252656    77.087635    315.38176          600          600          600  0.021900913    30620.275 6.7742992e-05 
 4937000    18.365438  0.022400428    66.649422    272.67683          600          600          600  0.034942629     30471.01 6.7742992e-05 
 4938000    21.020183  0.030481799    73.691247    301.48642          600          600          600  0.036333863    31505.089 6.7742992e-05 
 4939000    20.412152 -0.0027995573    75.623099    309.39003          600          600          600 -0.019322914    31593.606 6.7742992e-05 
 4940000    11.484091  0.003722285    76.909014    314.65098          600          600          600  0.007680623    30902.275 6.7742992e-05 
 4941000    17.470614 -0.016692035    61.422783    251.29355          600          600          600  0.011363214     29394.52 6.7742992e-05 
 4942000    12.312962  0.013340998    71.277211    291.61009          600          600          600  0.016772152    31802.496 6.7742992e-05 
 4943000    22.612871 0.0088206284    71.360165    291.94947          600          600          600  0.017658806    33231.423 6.7742992e-05 
 4944000    18.934981   0.01478429    67.999774     278.2014          600          600          600  0.021670839    33236.953 6.7742992e-05 
 4945000    19.504667 -0.0077608214    81.269885    332.49222          600          600          600 -0.0015165741    32232.141 6.7742992e-05 
 4946000    14.415207 -0.0099798515    77.618164    317.55226          600          600          600 0.0053849103    30284.658 6.7742992e-05 
 4947000    18.430923 -0.026524032    62.530775    255.82658          600          600          600 -0.021880001    29731.866 6.7742992e-05 
 4948000    16.673213 -0.004827661    68.393146    279.81077          600          600          600 -0.0021357939    31063.626 6.7742992e-05 
 4949000    21.681024 -0.019658371    79.403332    324.85576          600          600          600 -0.017086415    30878.387 6.7742992e-05 
 4950000     11.85974  0.010567739    63.619814    260.28206          600          600          600 0.00065096903    32849.353 6.7742992e-05 
 4951000    17.201867   0.02313234    75.779579    310.03022          600          600          600  0.002239151    34554.295 6.7742992e-05 
 4952000    29.071241 0.0010384228    75.649447    309.49783          600          600          600 -0.0054350804    33616.825 6.7742992e-05 
 4953000    25.319003 -0.0030092197    63.249442    258.76679          600          600          600 0.0042000855    32274.801 6.7742992e-05 
 4954000    22.123149 -0.008832605    63.110041    258.19648          600          600          600 -0.015086926    34195.112 6.7742992e-05 
 4955000    20.221732  0.015154121    74.955613    306.65921          600          600          600  0.005729117    32811.578 6.7742992e-05 
 4956000    16.292966  0.026929336    81.231053    332.33335          600          600          600  0.026746169    31163.332 6.7742992e-05 
 4957000    21.345603 0.0075585176    83.896349    343.23764          600          600          600  0.018030655    31359.751 6.7742992e-05 
 4958000    18.232062  0.014661301    73.975255    302.64836          600          600          600  0.017353523    28157.061 6.7742992e-05 
 4959000    19.147926  0.013598032    76.858838     314.4457          600          600          600  0.017210862    30973.246 6.7742992e-05 
 4960000    19.293091 0.00092327175    71.115399    290.94808          600          600          600 -0.0054755301    29636.698 6.7742992e-05 
 4961000    13.617898 0.0077349612    73.431916    300.42544          600          600          600 0.0053823339    30550.243 6.7742992e-05 
 4962000    30.534517 -0.022598185    74.948571    306.63039          600          600          600  -0.02272347    32358.214 6.7742992e-05 
 4963000    24.768389  0.012413707     77.48906    317.02407          600          600          600  0.014760747    31930.571 6.7742992e-05 
 4964000    18.042958  0.019077729    64.378803    263.38725          600          600          600  0.019471184    31642.468 6.7742992e-05 
 4965000    12.057354  -0.01327075     87.65674    358.62219          600          600          600 -0.013647624    28350.236 6.7742992e-05 
 4966000    12.086579  0.016349519    72.124804    295.07777          600          600          600  0.030792306     27965.01 6.7742992e-05 
 4967000    17.039277  0.024214763    68.833042    281.61048          600          600          600  0.048447125    29229.618 6.7742992e-05 
 4968000    19.080262  0.012599795     69.38983    283.88841          600          600          600 0.0033740202    30454.195 6.7742992e-05 
 4969000    15.898057 -0.013145679    82.268327    336.57706          600          600          600 -0.023717001    29068.973 6.7742992e-05 
 4970000    14.591097 -0.0089898325     66.72696    272.99405          600          600          600 0.0059207034     29918.71 6.7742992e-05 
 4971000    16.280929 -0.0091364075    72.525663    296.71777          600          600          600 0.0092616477    29872.045 6.7742992e-05 
 4972000     14.78099  0.013817737    70.982649    290.40497          600          600          600 0.0059220779    29479.431 6.7742992e-05 
 4973000    18.933526  0.028968545    72.150545    295.18308          600          600          600  0.034321674    28423.626 6.7742992e-05 
 4974000    27.517433 0.0081639088    69.833649    285.70417          600          600          600 0.0051747378    26755.872 6.7742992e-05 
 4975000    26.304892 -0.021244608    76.862761    314.46175          600          600          600 -0.016281974    26242.611 6.7742992e-05 
 4976000    16.068347 -0.0093599462    71.238802    291.45295          600          600          600 -0.028194101    26837.706 6.7742992e-05 
 4977000    12.569495   0.02256214    74.108628    303.19401          600          600          600  0.024647708    26619.854 6.7742992e-05 
 4978000    12.935288  0.021445577    79.225334    324.12753          600          600          600 -0.002107347    24300.155 6.7742992e-05 
 4979000    12.580011  0.017517951    68.380123    279.75749          600          600          600  0.017762441    22441.074 6.7742992e-05 
 4980000    13.476584  0.022852779    81.255022    332.43141          600          600          600  0.021915724    22854.502 6.7742992e-05 
 4981000    14.728548 -0.0051578404    74.849262     306.2241          600          600          600 -0.0069446405    25262.174 6.7742992e-05 
 4982000    19.417562 -0.010629543    80.733938    330.29955          600          600          600 -0.011630588     24167.42 6.7742992e-05 
 4983000    19.361452 -0.022402373     86.40872    353.51628          600          600          600 -0.012991206    24345.714 6.7742992e-05 
 4984000    13.284281 -0.0064268389    81.804031    334.67753          600          600          600 -0.0035168672    25689.059 6.7742992e-05 
 4985000    15.269392 -0.0026363415    90.638205    370.81999          600          600          600 -0.018329972    25304.391 6.7742992e-05 
 4986000    12.987733 -0.014643326    66.911934    273.75082          600          600          600 -0.023724997    25730.032 6.7742992e-05 
 4987000    17.615194 -0.013980776     73.77776    301.84036          600          600          600 -0.0033873074    27965.755 6.7742992e-05 
 4988000    19.571662 0.0041098964    76.925926    314.72017          600          600          600 -0.0050736123    26536.487 6.7742992e-05 
 4989000    19.225819 -0.010474097    71.116506    290.95261          600          600          600 -0.012682518     26677.25 6.7742992e-05 
 4990000    26.931772 -0.020886294    69.941483    286.14534          600          600          600 -0.033256756    26452.973 6.7742992e-05 
 4991000    17.321957 -0.0010500092     74.36372    304.23765          600          600          600 -0.017601127    23816.387 6.7742992e-05 
 4992000    16.257692 -0.0076061715    80.890007    330.93806          600          600          600 -0.0026918009    26273.515 6.7742992e-05 
 4993000    26.074119 -0.0050468396    70.733344    289.38501          600          600          600   0.01792658    29148.568 6.7742992e-05 
 4994000    6.6942274  0.014303401    77.774778      318.193          600          600          600 0.0099917022    28806.835 6.7742992e-05 
 4995000     16.83099 -0.012301515    69.887296    285.92365          600          600          600 -0.003708896    29287.787 6.7742992e-05 
 4996000    9.4410776  0.015709295    82.473297    337.41564          600          600          600  0.028213183     26692.36 6.7742992e-05 
 4997000    11.300694  0.010810266    68.051453    278.41283          600          600          600 -0.0079790171    24767.805 6.7742992e-05 
 4998000    14.579013  0.018892909    78.542142    321.33245          600          600          600    0.0285309      24518.2 6.7742992e-05 
 4999000   0.11760634 -0.0012301715    83.679521    342.35055          600          600          600 -0.0027169946    24297.199 6.7742992e-05 
 5000000    19.254923  0.010595836    73.063332    298.91749          600          600          600  0.013156752    23478.035 6.7742992e-05 
Loop time of 183.659 on 1 procs for 5000000 steps with 83 atoms

Performance: 23521.804 ns/day, 0.001 hours/ns, 27224.310 timesteps/s
99.8% CPU use with 1 MPI tasks x no OpenMP threads

MPI task timing breakdown:
Section |  min time  |  avg time  |  max time  |%varavg| %total
---------------------------------------------------------------
Pair    | 97.715     | 97.715     | 97.715     |   0.0 | 53.20
Bond    | 4.4671     | 4.4671     | 4.4671     |   0.0 |  2.43
Neigh   | 45.121     | 45.121     | 45.121     |   0.0 | 24.57
Comm    | 2.487      | 2.487      | 2.487      |   0.0 |  1.35
Output  | 0.45627    | 0.45627    | 0.45627    |   0.0 |  0.25
Modify  | 19.863     | 19.863     | 19.863     |   0.0 | 10.81
Other   |            | 13.55      |            |       |  7.38

Nlocal:        83.0000 ave          83 max          83 min
Histogram: 1 0 0 0 0 0 0 0 0 0
Nghost:         0.00000 ave           0 max           0 min
Histogram: 1 0 0 0 0 0 0 0 0 0
Neighs:        1276.00 ave        1276 max        1276 min
Histogram: 1 0 0 0 0 0 0 0 0 0

Total # of neighbors = 1276
Ave neighs/atom = 15.373494
Ave special neighs/atom = 1.9759036
Neighbor list builds = 124719
Dangerous builds = 40
Total wall time: 0:03:03
