LAMMPS (10 Mar 2021)
Reading data file ...
  orthogonal box = (-300.00000 -300.00000 -300.00000) to (300.00000 300.00000 300.00000)
  1 by 1 by 1 MPI processor grid
  reading atoms ...
  71 atoms
  scanning bonds ...
  1 = max bonds/atom
  reading bonds ...
  70 bonds
Finding 1-2 1-3 1-4 neighbors ...
  special bond factors lj:    0        0        0       
  special bond factors coul:  0        0        0       
     2 = max # of 1-2 neighbors
     2 = max # of 1-3 neighbors
     4 = max # of 1-4 neighbors
     6 = max # of special neighbors
  special bonds CPU = 0.000 seconds
  read_data CPU = 0.003 seconds
Setting atom values ...
  1 settings made for charge
Setting atom values ...
  0 settings made for charge
Setting atom values ...
  4 settings made for charge
Setting atom values ...
  0 settings made for charge
Setting atom values ...
  1 settings made for charge
Setting atom values ...
  0 settings made for charge
Setting atom values ...
  7 settings made for charge
Setting atom values ...
  0 settings made for charge
Setting atom values ...
  6 settings made for charge
Setting atom values ...
  0 settings made for charge
Finding 1-2 1-3 1-4 neighbors ...
  special bond factors lj:    0        1        1       
  special bond factors coul:  0        1        1       
     2 = max # of 1-2 neighbors
     6 = max # of special neighbors
  special bonds CPU = 0.000 seconds
New timer settings: style=normal  mode=nosync  timeout=11:50:00

CITE-CITE-CITE-CITE-CITE-CITE-CITE-CITE-CITE-CITE-CITE-CITE-CITE

Your simulation uses code contributions which should be cited:

- neighbor multi command:

@Article{Intveld08,
 author =  {P.{\,}J.~in{\,}'t~Veld and S.{\,}J.~Plimpton and G.{\,}S.~Grest},
 title =   {Accurate and Efficient Methods for Modeling Colloidal
            Mixtures in an Explicit Solvent using Molecular Dynamics},
 journal = {Comp.~Phys.~Comm.},
 year =    2008,
 volume =  179,
 pages =   {320--329}
}

CITE-CITE-CITE-CITE-CITE-CITE-CITE-CITE-CITE-CITE-CITE-CITE-CITE

Neighbor list info ...
  update every 10 steps, delay 0 steps, check yes
  max neighbors/atom: 2000, page size: 100000
  master list distance cutoff = 38.5
  ghost atom cutoff = 38.5
  binsize = 8.7926654, bins = 69 69 69
  2 neighbor lists, perpetual/occasional/extra = 2 0 0
  (1) pair wf/cut, perpetual
      attributes: half, newton on
      pair build: half/multi/newton
      stencil: half/multi/3d/newton
      bin: standard
  (2) pair coul/debye, perpetual, skip from (1)
      attributes: half, newton on
      pair build: skip
      stencil: none
      bin: none
Per MPI rank memory allocation (min/avg/max) = 10.86 | 10.86 | 10.86 Mbytes
Step PotEng Press KinEng Temp Lx Ly Lz Pzz S/CPU Density 
       0    3222.7795   -1.8688826            0            0          600          600          600            0            0 5.9070443e-05 
    1000    24.352795  0.020862757     202.9554    972.67615          600          600          600  0.003873061    20947.221 5.9070443e-05 
    2000    21.014853  -0.01776196    68.996994    330.67231          600          600          600 -0.0038585004     34719.91 5.9070443e-05 
    3000    20.924834 -0.0037668914    73.459311    352.05823          600          600          600  0.008322446    39033.484 5.9070443e-05 
    4000    16.327692  0.017009925    67.334897    322.70661          600          600          600 0.0033772419    36471.257 5.9070443e-05 
    5000    13.297551  0.011313991    63.570399    304.66502          600          600          600  0.017082535        34915 5.9070443e-05 
    6000    11.255124 -0.022256051    61.422111    294.36922          600          600          600 -0.011163006    36460.161 5.9070443e-05 
    7000    14.575129  0.013651043    60.828729     291.5254          600          600          600  0.011039865    34793.642 5.9070443e-05 
    8000    18.371387 -0.0017964712     72.36118    346.79538          600          600          600 -0.010786527    36409.837 5.9070443e-05 
    9000    13.958625 -0.003798423      66.7575     319.9394          600          600          600 -0.0056810783    36400.673 5.9070443e-05 
   10000    12.532561 0.0070333975     67.16898    321.91144          600          600          600  0.006599948    34197.621 5.9070443e-05 
   11000    17.728375 -0.0028084644    58.662268    281.14251          600          600          600 -0.0059638092     33672.15 5.9070443e-05 
   12000    16.372685 0.0057873643    68.562976    328.59225          600          600          600 -0.0051765256    34932.156 5.9070443e-05 
   13000    7.9349084  0.014684264    62.841161     301.1701          600          600          600  0.010759341    31714.724 5.9070443e-05 
   14000    15.732205 -0.018378101    62.672571    300.36213          600          600          600 -0.025949062    35408.417 5.9070443e-05 
   15000     16.88777 0.0072559965    54.643919    261.88432          600          600          600  0.014477335    37695.849 5.9070443e-05 
   16000    16.096215 -0.0054214308    62.512319    299.59411          600          600          600 -0.023692474    37319.192 5.9070443e-05 
   17000    21.417083 0.0029081862     68.22337    326.96467          600          600          600 -0.00083071141    36709.383 5.9070443e-05 
   18000    15.590945  0.020447584    69.763349    334.34511          600          600          600  0.025345571    36703.922 5.9070443e-05 
   19000    21.530689 -0.011098118    64.888839    310.98372          600          600          600 -0.027367423    38166.468 5.9070443e-05 
   20000    23.354134 -0.022150737    60.730856    291.05634          600          600          600 -0.029931045    35405.727 5.9070443e-05 
   21000    15.540604 -0.0044943354    51.393585     246.3069          600          600          600  0.015873153    34616.465 5.9070443e-05 
   22000    17.335058 -0.012373496    71.719272    343.71899          600          600          600 -0.011814538    35313.318 5.9070443e-05 
   23000     18.21402 -0.013264037    63.882101    306.15887          600          600          600 -0.0087637016    36008.791 5.9070443e-05 
   24000    9.8557058 -0.0037859919     69.40155    332.61117          600          600          600 -0.015763511    36879.811 5.9070443e-05 
   25000     16.42319 -0.0046978045    71.297587    341.69804          600          600          600  -0.01698194    35148.192 5.9070443e-05 
   26000    16.101204 0.0058867096    53.882837    258.23679          600          600          600 0.0045720088    35090.263 5.9070443e-05 
   27000    14.466574 -0.010266409    64.566548    309.43912          600          600          600 -0.0076369112    32441.055 5.9070443e-05 
   28000    13.537403  0.016336107    65.513518    313.97754          600          600          600 8.9154231e-05    32906.567 5.9070443e-05 
   29000    14.893838 0.0097326927    64.205281    307.70773          600          600          600 0.0087679211     33534.58 5.9070443e-05 
   30000    19.781875 -0.0021861163    59.950608    287.31695          600          600          600 -0.0036057885    29705.334 5.9070443e-05 
   31000    8.3517206 0.0032009594     47.21926    226.30119          600          600          600 0.00041048093    30280.067 5.9070443e-05 
   32000    10.360616 0.0071943416    73.416621    351.85364          600          600          600 -0.0083120154     32191.57 5.9070443e-05 
   33000    17.521193  0.014572439    62.244871    298.31234          600          600          600  0.013850612    32101.886 5.9070443e-05 
   34000     21.80629 0.0028704071    63.788947    305.71243          600          600          600 0.0036372076    34269.989 5.9070443e-05 
   35000    17.211295  0.011960237    63.180899    302.79832          600          600          600 0.0096976589    33665.393 5.9070443e-05 
   36000    16.076372  0.009159034    61.008571     292.3873          600          600          600 0.0023774781    30504.695 5.9070443e-05 
   37000    19.645328  -0.03168824     74.49922    357.04206          600          600          600 -0.028236515    29582.142 5.9070443e-05 
   38000    14.842209 5.5975449e-06    51.529681    246.95914          600          600          600 -0.021740358    30727.727 5.9070443e-05 
   39000    18.042573 -0.0085950003    66.053201      316.564          600          600          600 -0.020893953     31470.34 5.9070443e-05 
   40000    14.653307  0.014094292    57.067112    273.49762          600          600          600 0.0069768732    31149.677 5.9070443e-05 
   41000    16.644509 0.0066887249    54.595599    261.65275          600          600          600  0.013998512    33530.022 5.9070443e-05 
   42000    11.039369 0.0027462055    62.312279     298.6354          600          600          600  0.021132371    32563.714 5.9070443e-05 
   43000    9.8306836 0.0029521966    66.369337     318.0791          600          600          600 0.0043124068    31117.785 5.9070443e-05 
   44000    15.397469 -0.033969061    56.705395    271.76407          600          600          600 -0.044493276    31961.229 5.9070443e-05 
   45000    17.235667 0.0084590036    56.501535    270.78706          600          600          600 0.0058355371    33336.544 5.9070443e-05 
   46000    17.911435 0.0040949184    58.575523    280.72677          600          600          600 0.0016118698    32717.135 5.9070443e-05 
   47000    20.175521  0.010029435    63.566797    304.64776          600          600          600 -0.00049635336     32226.94 5.9070443e-05 
   48000    14.206261  0.010793213    59.347059    284.42441          600          600          600   0.01031988    32466.417 5.9070443e-05 
   49000    11.360037 1.3885696e-05    62.592718    299.97942          600          600          600 0.0032931198     32045.23 5.9070443e-05 
   50000    18.097555 -0.016308063    64.653455    309.85564          600          600          600 0.00049098538    30073.378 5.9070443e-05 
   51000    14.964366 0.0027522717    62.984026    301.85479          600          600          600 -0.012629086    30961.585 5.9070443e-05 
   52000    16.343189 -0.013874792    64.929978    311.18089          600          600          600 -0.026873195    32784.648 5.9070443e-05 
   53000    13.806998 -0.012285297    57.047072    273.40158          600          600          600 0.00062518246    32385.697 5.9070443e-05 
   54000    21.107012  -0.02443044    57.658868    276.33365          600          600          600  -0.02418007    35964.638 5.9070443e-05 
   55000    17.060357  0.017446857      63.0202    302.02816          600          600          600 -0.00049678159    36300.177 5.9070443e-05 
   56000    18.600741 -0.0059931165    66.654953    319.44793          600          600          600 -0.020419276    36114.207 5.9070443e-05 
   57000     13.98396  0.015385979    67.472243    323.36485          600          600          600  0.010936663    34177.557 5.9070443e-05 
   58000     21.94634 -0.010626732    73.551048    352.49789          600          600          600 -0.004313427    38470.324 5.9070443e-05 
   59000    17.957634  0.039007403    71.462771     342.4897          600          600          600  0.040516442    37463.192 5.9070443e-05 
   60000    14.356713 0.0064155724    63.314567    303.43893          600          600          600   0.01974314    36997.248 5.9070443e-05 
   61000    17.379609 -0.011537913    81.849006    392.26636          600          600          600 -0.019922979    36979.634 5.9070443e-05 
   62000    14.325642 -0.0080263317     56.60846     271.2995          600          600          600 -0.00052661853    37540.312 5.9070443e-05 
   63000    13.018715  0.016424656    67.406907    323.05172          600          600          600 0.00013436786    38331.801 5.9070443e-05 
   64000    17.950016 -0.011002621    59.753719    286.37335          600          600          600 -0.018275776    37821.277 5.9070443e-05 
   65000    13.671832 -0.0035341229    58.658588    281.12487          600          600          600 -0.012632746    38537.129 5.9070443e-05 
   66000    16.231472 -0.0033720173    64.455363    308.90627          600          600          600 0.0023066464    38105.441 5.9070443e-05 
   67000    18.337093 0.0067426566    58.936887    282.45863          600          600          600 0.0092808231    37078.359 5.9070443e-05 
   68000    15.285939   0.02435062    66.523458    318.81774          600          600          600  0.034442085    37356.419 5.9070443e-05 
   69000    15.268608  0.027972295    67.312842    322.60091          600          600          600   0.03124761    38027.362 5.9070443e-05 
   70000    20.060365 0.0079640276     63.04067    302.12626          600          600          600 -0.0033832936    36244.969 5.9070443e-05 
   71000    14.241733 0.0088779949    61.557942     295.0202          600          600          600 0.0021354138    39888.389 5.9070443e-05 
   72000    14.617196 -0.014095108    59.540057    285.34936          600          600          600 -0.001990335    38051.512 5.9070443e-05 
   73000    17.403394 -0.0094770514     66.31981    317.84174          600          600          600 -0.016464166    38614.828 5.9070443e-05 
   74000    19.888424 -0.0044926721    67.384474    322.94421          600          600          600 -0.0027401348    39175.671 5.9070443e-05 
   75000     17.38138  0.015916826    62.692929    300.45969          600          600          600  0.015283374    38429.085 5.9070443e-05 
   76000    18.703389 -0.017867418     60.48216    289.86445          600          600          600 -0.029806871    36879.811 5.9070443e-05 
   77000    14.018617  0.018008353    54.559932    261.48181          600          600          600 -0.0021230378    35293.409 5.9070443e-05 
   78000    15.881329 -0.012841343    48.601231    232.92437          600          600          600 -0.0044863116    36123.227 5.9070443e-05 
   79000    16.299526 -0.0061935771     80.57953    386.18232          600          600          600 -0.0085878303    34134.167 5.9070443e-05 
   80000    18.144216   0.01355906    64.901754    311.04562          600          600          600  0.010490823    32404.462 5.9070443e-05 
   81000    17.765539 -0.0076824472    54.608067     261.7125          600          600          600 -0.0086240865    32676.608 5.9070443e-05 
   82000    12.238612 -0.0044280584     64.08522    307.13233          600          600          600 -0.0062693161    33530.022 5.9070443e-05 
   83000    16.939689  0.014803816    70.968813    340.12237          600          600          600 -0.0017095876    32743.954 5.9070443e-05 
   84000    10.633514 0.0036609306    69.051095    330.93159          600          600          600  0.005396135    35853.962 5.9070443e-05 
   85000    18.545926 0.0052142871    83.994588     402.5492          600          600          600  0.019201719    36475.063 5.9070443e-05 
   86000    18.578528  0.009875555    59.924204    287.19041          600          600          600  0.030515581    35849.978 5.9070443e-05 
   87000    23.663199 -0.011889049    66.260609    317.55802          600          600          600 -0.0073901897    36010.028 5.9070443e-05 
   88000    11.702817 -0.0014442189    57.955019    277.75297          600          600          600 0.0065567443    32713.818 5.9070443e-05 
   89000    19.373484 -0.0061238636    69.186732    331.58164          600          600          600 -0.006707616    31882.755 5.9070443e-05 
   90000    16.658445 -0.023607984    65.105367    312.02145          600          600          600 -0.036826717    31738.963 5.9070443e-05 
   91000    10.113652 0.0057940757    71.020773     340.3714          600          600          600 0.0018963439    34463.723 5.9070443e-05 
   92000    13.978309 0.0066506941    60.119431    288.12604          600          600          600 0.0048418744    34885.669 5.9070443e-05 
   93000    14.966461 0.0059456282    65.887462    315.76969          600          600          600 0.0064071629     34803.17 5.9070443e-05 
   94000    19.998601 0.0094479671    58.637348    281.02308          600          600          600  0.009460193    33519.036 5.9070443e-05 
   95000    24.085174  0.013264951    63.684753    305.21307          600          600          600  0.020008195    34177.279 5.9070443e-05 
   96000    17.200354 -0.0032687237    59.570348    285.49453          600          600          600  0.030283056    33347.942 5.9070443e-05 
   97000    19.874098   0.01324809    60.209143      288.556          600          600          600  0.031640716    32782.599 5.9070443e-05 
   98000    22.529536 -0.0086695963    60.009688     287.6001          600          600          600 0.0020625145    34047.163 5.9070443e-05 
   99000    20.718508 -0.008729142    73.413871    351.84046          600          600          600 -0.015273062    34642.769 5.9070443e-05 
  100000    18.372938  0.012669691    69.738364    334.22537          600          600          600  0.017598249    30177.671 5.9070443e-05 
  101000    24.365182 0.0039727898    65.706848    314.90408          600          600          600  0.018563382    32511.968 5.9070443e-05 
  102000    21.044342 -0.014067329     66.25743    317.54278          600          600          600  0.016642761    33992.803 5.9070443e-05 
  103000     23.29792 0.0022041561    75.898061    363.74609          600          600          600 -0.0088449274      36252.8 5.9070443e-05 
  104000    16.105847 0.0019417343    67.780647    324.84289          600          600          600 0.00071846876    34955.446 5.9070443e-05 
  105000    15.738256 0.0046974742    62.885973    301.38487          600          600          600 -0.0039645759    34569.674 5.9070443e-05 
  106000     17.95061 -0.019797255    65.945107    316.04595          600          600          600 -0.025133175    35574.494 5.9070443e-05 
  107000    20.073861 -0.0094041573    71.634563    343.31302          600          600          600 -0.00079431836     36208.36 5.9070443e-05 
  108000    18.390373  0.012009215    67.677151    324.34688          600          600          600  0.023502414    35683.753 5.9070443e-05 
  109000    18.073703 -0.0098385863    58.819545    281.89626          600          600          600 -0.0030283182    36018.996 5.9070443e-05 
  110000    18.653388  -0.01169159    70.834127    339.47688          600          600          600 -0.016411539    36870.409 5.9070443e-05 
  111000    12.941241 -0.0020624073    58.065967     278.2847          600          600          600 0.0067677682    35193.905 5.9070443e-05 
  112000    14.789374 0.0032937891    64.142195    307.40539          600          600          600 -0.021707518    34731.985 5.9070443e-05 
  113000    19.558519 0.0065427324    68.416401    327.88978          600          600          600 0.0035220841    31453.348 5.9070443e-05 
  114000    15.417918  0.011536603    61.876147    296.54522          600          600          600   0.01619878     31384.39 5.9070443e-05 
  115000    17.902164 0.0038833525    62.826871    301.10162          600          600          600 0.00070749373    31903.126 5.9070443e-05 
  116000    15.806933 -0.0036280024    69.270919    331.98511          600          600          600 0.0018223077    32472.701 5.9070443e-05 
  117000    13.720608 -0.011399116    61.676927    295.59044          600          600          600 -0.019758003    32121.308 5.9070443e-05 
  118000    18.159948 0.0061957568    73.131663    350.48796          600          600          600 0.0020641687    31215.051 5.9070443e-05 
  119000    15.347454 -0.0020859728    60.845459    291.60558          600          600          600 0.0046882599    33089.328 5.9070443e-05 
  120000    23.757897 -0.010889112    56.285581    269.75209          600          600          600 -0.014317674    33307.953 5.9070443e-05 
  121000    17.372098 0.0052617372    71.951984    344.83428          600          600          600  0.021306845    31507.929 5.9070443e-05 
  122000    7.6132043  0.010650375    55.469757     265.8422          600          600          600  0.014914167    30954.045 5.9070443e-05 
  123000    15.237046  0.010342742    59.532166    285.31154          600          600          600 -0.0059162898    32666.937 5.9070443e-05 
  124000    12.705306 -0.023515955     59.31794    284.28485          600          600          600 -0.020784198    32017.343 5.9070443e-05 
  125000    14.335983 -0.0057227197    62.056836    297.41118          600          600          600  -0.01558589     31378.52 5.9070443e-05 
  126000    23.666305 -0.022746512    70.042586    335.68337          600          600          600 -0.020420902    30559.592 5.9070443e-05 
  127000    16.603047 -0.0078734012    58.876522    282.16933          600          600          600 -0.0058673367    32327.786 5.9070443e-05 
  128000    13.589578  0.004317477    59.305365    284.22458          600          600          600 -0.0083358053    35063.275 5.9070443e-05 
  129000    19.285541 0.0023155011    69.569487    333.41602          600          600          600 0.0073006754    33480.507 5.9070443e-05 
  130000    19.445523  0.015063009    67.833978    325.09848          600          600          600 0.0094403925    32090.342 5.9070443e-05 
  131000    23.291303 -0.0038460091    73.185787    350.74735          600          600          600 -0.00061823976    31341.239 5.9070443e-05 
  132000    14.106463 0.0047196312    63.083089    302.32956          600          600          600  0.025460348    31602.414 5.9070443e-05 
  133000    20.318928 -0.0060531144    61.228194    293.43986          600          600          600 0.0048254118    34197.342 5.9070443e-05 
  134000    13.154886 -0.012877675    58.911524    282.33708          600          600          600 -0.027159985    33465.013 5.9070443e-05 
  135000    16.870317 0.0002611705    66.093334    316.75634          600          600          600 -0.0087147773    33390.152 5.9070443e-05 
  136000    14.136947 0.0035953501    63.082561    302.32703          600          600          600 -0.0053321497    34820.217 5.9070443e-05 
  137000    18.549654 -0.0006279582    72.897384    349.36517          600          600          600 -0.037696689    36136.298 5.9070443e-05 
  138000     16.12325 0.0051330656    67.942002    325.61619          600          600          600 -4.4088713e-05    34901.635 5.9070443e-05 
  139000    13.958456 -0.0025098118    63.248503    303.12231          600          600          600 -0.00077179144    33666.474 5.9070443e-05 
  140000    9.2313523 0.00034546189    66.971254    320.96383          600          600          600 0.00039891379    34269.989 5.9070443e-05 
  141000    11.459718 -0.011777964    58.419931    279.98109          600          600          600 -0.013532313     35309.75 5.9070443e-05 
  142000    18.609674 -0.0023867117    53.829159    257.97954          600          600          600   0.01255023    35204.835 5.9070443e-05 
  143000    23.719496 -0.007136042    72.598629    347.93337          600          600          600 -0.0040228395    35962.171 5.9070443e-05 
  144000    16.866589 0.0017230213    69.238596     331.8302          600          600          600  0.004731716    34863.921 5.9070443e-05 
  145000    7.6975101  0.016861839    57.682089    276.44494          600          600          600   0.02113069    30554.917 5.9070443e-05 
  146000    17.254271 0.0016508741     60.73279     291.0656          600          600          600 -0.023513458    30330.648 5.9070443e-05 
  147000    18.799479 0.0029943736     61.55008    294.98252          600          600          600  0.016373542    30609.995 5.9070443e-05 
  148000     20.20215 0.0067105175     63.78952    305.71517          600          600          600  0.013317547    29801.791 5.9070443e-05 
  149000    11.109847 0.0069551341     51.97377    249.08747          600          600          600  0.010823854    30816.678 5.9070443e-05 
  150000    23.883583 -0.023481298    65.319708    313.04869          600          600          600 -0.040128044    31711.847 5.9070443e-05 
  151000    22.977275  0.033458866    58.460914     280.1775          600          600          600  0.029738426    34597.334 5.9070443e-05 
  152000    13.385291  0.012596365     76.74827    367.82077          600          600          600 -0.014290867    32809.268 5.9070443e-05 
  153000    9.8062007 -0.027780226    66.823536    320.25588          600          600          600 -0.026657908    33592.055 5.9070443e-05 
  154000    14.489187 -0.0083742232    60.297209    288.97806          600          600          600 -0.0058662462    32666.937 5.9070443e-05 
  155000    8.3525263 -0.0063266769    60.776914    291.27708          600          600          600 -0.012640369     32864.54 5.9070443e-05 
  156000    15.893536 -0.0076285832    57.146048    273.87593          600          600          600 -0.0098827997    34722.209 5.9070443e-05 
  157000    14.675738  0.030142619    60.499498    289.94754          600          600          600  0.031318942    32401.208 5.9070443e-05 
  158000    12.493201 0.0041823755    66.882004    320.53609          600          600          600  0.011930462    33047.093 5.9070443e-05 
  159000    5.1676313  0.019223759    67.107344    321.61605          600          600          600  0.025121789    29489.795 5.9070443e-05 
  160000    18.824402   -0.0146701    58.759453    281.60827          600          600          600  -0.03187639    33377.664 5.9070443e-05 
  161000    14.989599 -0.0035027223    59.338254    284.38221          600          600          600  0.011728421     31470.34 5.9070443e-05 
  162000    14.920648 0.0044632705    69.318317    332.21227          600          600          600 -0.009144489    30562.487 5.9070443e-05 
  163000    20.511582    0.0107714    62.837574    301.15291          600          600          600 0.0035392521    33180.685 5.9070443e-05 
  164000    14.530916 -0.0074572084    67.646178    324.19844          600          600          600 -0.027681248    31326.258 5.9070443e-05 
  165000     22.61541  0.016411986    54.698518    262.14599          600          600          600  0.020061163    31112.938 5.9070443e-05 
  166000     13.85106  0.011553204    64.181586    307.59417          600          600          600 -0.004011591    32412.726 5.9070443e-05 
  167000    17.974308 -0.011369079    63.309995    303.41702          600          600          600 -0.0026429909    30669.309 5.9070443e-05 
  168000    18.241618 0.00063240616    60.068515    287.88203          600          600          600 0.0055387118    26630.333 5.9070443e-05 
  169000    12.442948 -0.005528775    62.578082    299.90928          600          600          600 -0.0069081461    26258.547 5.9070443e-05 
  170000    17.269428  0.027363858    60.295948    288.97202          600          600          600  0.034745518    28083.535 5.9070443e-05 
  171000    18.355256  0.012060586    70.263551    336.74236          600          600          600  0.029816125    29435.985 5.9070443e-05 
  172000    20.365053 -0.0094678731    65.200051    312.47523          600          600          600 0.00082084548     31308.72 5.9070443e-05 
  173000    18.367892 -0.026393337    65.307409    312.98975          600          600          600 0.0023777468    30421.063 5.9070443e-05 
  174000    20.796174 -0.0061631701      71.1674    341.07411          600          600          600 -0.0086726146    31913.079 5.9070443e-05 
  175000    15.141115 0.00067176779     61.78991    296.13192          600          600          600 -0.012378052    32959.837 5.9070443e-05 
  176000    18.507461 0.0040129217    68.801805    329.73685          600          600          600  0.008101111    33965.001 5.9070443e-05 
  177000    11.613832 0.0081039609    62.055943     297.4069          600          600          600   0.01752967    34634.473 5.9070443e-05 
  178000    22.075954 0.00030242401    66.216824    317.34817          600          600          600  0.015611011    34408.026 5.9070443e-05 
  179000    18.829219 -0.006842535    65.456403    313.70381          600          600          600 -0.035717906    32901.405 5.9070443e-05 
  180000    13.638256  0.016744929    65.484051    313.83632          600          600          600  0.022766601    32762.113 5.9070443e-05 
  181000    15.821629 0.0025933087    70.706233    338.86394          600          600          600 0.0020195715    32148.144 5.9070443e-05 
  182000    17.202265 -0.024327369    66.503509    318.72213          600          600          600 -0.023888366    34021.755 5.9070443e-05 
  183000    22.507882 -0.0021759747    74.328924    356.22591          600          600          600 -0.021607982    34921.104 5.9070443e-05 
  184000    24.692742 -0.013470861    69.428727    332.74142          600          600          600 -0.030888864    35302.023 5.9070443e-05 
  185000    18.295011 -6.4260177e-05    63.725439    305.40806          600          600          600 -0.0025118894    35880.646 5.9070443e-05 
  186000    18.596859  0.011155905    60.010961     287.6062          600          600          600  0.027930956    34442.497 5.9070443e-05 
  187000    16.015987 -0.011497771    61.940898    296.85554          600          600          600 0.0047712734    37673.164 5.9070443e-05 
  188000    20.563447  -0.02051548    70.016833    335.55995          600          600          600 -0.021424486    39945.752 5.9070443e-05 
  189000    17.216206 -0.0017694746    51.389375    246.28672          600          600          600  0.019279397    38759.705 5.9070443e-05 
  190000    21.947236 -0.0081112771    63.787798    305.70692          600          600          600 -0.0056668574    37708.727 5.9070443e-05 
  191000    17.821224 -0.021318451    61.133744     292.9872          600          600          600 -0.032327324    39376.481 5.9070443e-05 
  192000    22.288446 -0.0083924646    66.544828    318.92015          600          600          600 -0.015476939    37639.018 5.9070443e-05 
  193000    15.479112 -0.0015656489    65.067126    311.83818          600          600          600 -0.015493837    37485.624 5.9070443e-05 
  194000    17.040969 -0.015531322    63.906111    306.27394          600          600          600 -0.020948977    33953.453 5.9070443e-05 
  195000    14.826993 -0.0084588109    54.581215    261.58381          600          600          600 -0.0038469771    32962.168 5.9070443e-05 
  196000    10.965584 -0.0096044186    61.672116    295.56738          600          600          600 -0.0087448296    33910.903 5.9070443e-05 
  197000    14.050826 0.0015948798    63.656924     305.0797          600          600          600 0.0019789669    33707.328 5.9070443e-05 
  198000    20.323878 -0.014818528    64.272175    308.02832          600          600          600 -0.010799642    34507.956 5.9070443e-05 
  199000    19.644202 0.00081712916      64.6044    309.62054          600          600          600 -0.0056637919    36856.801 5.9070443e-05 
  200000    18.715778 -0.0049358444    69.865128    334.83289          600          600          600 -0.0052582884    37686.026 5.9070443e-05 
  201000    18.110654 -0.00041820007    64.707064    310.11256          600          600          600 -0.013116273    38972.552 5.9070443e-05 
  202000    18.765694 0.0096871401    73.272584    351.16334          600          600          600 0.0093596598    35495.015 5.9070443e-05 
  203000     13.02562  0.014700407    64.749893    310.31782          600          600          600  0.014175995    34626.182 5.9070443e-05 
  204000    15.424579 -0.011373116    65.814071    315.41796          600          600          600 -0.0070503784    36089.348 5.9070443e-05 
  205000    16.429616 0.0012204525     59.45571    284.94512          600          600          600 -0.014833573    34597.049 5.9070443e-05 
  206000    15.905798 0.0089392602    64.661298    309.89322          600          600          600 0.00032607313    34115.842 5.9070443e-05 
  207000     12.13457 -0.0034936001    63.983783    306.64619          600          600          600 -0.015320866    36512.213 5.9070443e-05 
  208000    9.4631801 -0.0019988414    73.279057    351.19436          600          600          600 0.0026695479    36815.069 5.9070443e-05 
  209000    14.909857  0.019085399    69.333934    332.28712          600          600          600  0.020662477    36569.515 5.9070443e-05 
  210000    17.652791 -0.0081510767    60.261939    288.80902          600          600          600 -0.016787869    33242.485 5.9070443e-05 
  211000    24.133745 -0.00050421558    63.747034    305.51156          600          600          600  0.018631806    33455.938 5.9070443e-05 
  212000    23.002839 -0.023756271    58.776307    281.68904          600          600          600 -0.032045153    32580.914 5.9070443e-05 
  213000    14.781566 0.00031260601    60.240081    288.70427          600          600          600 -0.0070693257    32406.465 5.9070443e-05 
  214000    15.026521 -0.017605271    59.958984     287.3571          600          600          600 -0.013127914    33630.302 5.9070443e-05 
  215000    15.153097 -0.010172805    63.337084    303.54684          600          600          600 0.0060843572    33438.068 5.9070443e-05 
  216000     13.81142 0.0041267107    75.454552    361.62055          600          600          600 -0.014856642    33747.468 5.9070443e-05 
  217000    12.998327  0.013196833    57.162222    273.95344          600          600          600 0.0026751979     32593.32 5.9070443e-05 
  218000    21.090908  -0.00406881    62.507534    299.57118          600          600          600  0.007226564     32077.09 5.9070443e-05 
  219000    21.908363 -0.0093890679     55.27161    264.89257          600          600          600 -0.011441382    32206.154 5.9070443e-05 
  220000    12.706673 0.0097507143    74.870015    358.81912          600          600          600 -0.0083356051    31815.764 5.9070443e-05 
  221000    13.672451 0.0093972246    66.679934    319.56766          600          600          600  0.013524018    37188.491 5.9070443e-05 
  222000    17.492629  0.012876719    69.340217    332.31723          600          600          600 0.0027901854    36154.676 5.9070443e-05 
  223000     16.15183 -0.00076579704    72.528886    347.59912          600          600          600 0.0085548468    36269.729 5.9070443e-05 
  224000    19.977289 0.0067418605    53.616525    256.96047          600          600          600 -0.0021727657    36334.768 5.9070443e-05 
  225000    16.564723 0.0042703394    64.491782    309.08081          600          600          600 -0.003912501    34877.257 5.9070443e-05 
  226000    20.973369 -0.0054353164    68.864041    330.03512          600          600          600 0.0079199798    34073.715 5.9070443e-05 
  227000    16.622871 0.0039453271    68.545439    328.50821          600          600          600 -0.0066495567    34511.363 5.9070443e-05 
  228000    15.303766 -0.010424109    66.231973    317.42078          600          600          600 -0.032617637    35738.482 5.9070443e-05 
  229000    18.839784 -0.0036494919    51.371894    246.20294          600          600          600 0.0071561453    36359.652 5.9070443e-05 
  230000    11.487619  0.015407349    59.335196    284.36755          600          600          600  0.019951644    34713.875 5.9070443e-05 
  231000    17.759703 0.0044982761    67.557519    323.77354          600          600          600 0.0089032451    35117.292 5.9070443e-05 
  232000    15.310357 -0.0063055339    66.472885    318.57536          600          600          600 -0.0050122236    37630.914 5.9070443e-05 
  233000    13.915926 0.0071153401    61.644866    295.43679          600          600          600 0.0088203889     34711.29 5.9070443e-05 
  234000    11.864834  0.013048711    62.266915    298.41799          600          600          600 0.0074785453    33688.106 5.9070443e-05 
  235000    15.641362   0.00473988    75.107655    359.95802          600          600          600  0.012524865    33869.554 5.9070443e-05 
  236000    19.545022 0.0078063204    64.279828      308.065          600          600          600  0.010321848    35042.183 5.9070443e-05 
  237000    19.210704 0.0087448575    54.219694     259.8512          600          600          600  0.023693424    39056.383 5.9070443e-05 
  238000    18.169706  0.019572857    61.913443    296.72396          600          600          600 -0.017352226    36492.518 5.9070443e-05 
  239000     9.704181 0.0013696436    71.916311    344.66331          600          600          600 0.0050717971    35528.991 5.9070443e-05 
  240000    17.424466   -0.0178474    65.812522    315.41053          600          600          600 -0.016467101    37249.591 5.9070443e-05 
  241000    18.017016 0.0037369577    73.341966    351.49586          600          600          600  0.012690952    34338.166 5.9070443e-05 
  242000    23.205426 -0.0071389215    68.298734    327.32585          600          600          600 -0.0028262535    36509.671 5.9070443e-05 
  243000    18.174252 -0.016276428    65.479935    313.81659          600          600          600 -0.024566818    38687.845 5.9070443e-05 
  244000    18.063237 -0.0014227159    66.422206    318.33248          600          600          600 -0.00062177541    35202.471 5.9070443e-05 
  245000    21.353016 -0.011544088     54.43347    260.87573          600          600          600 -0.010076423    35579.624 5.9070443e-05 
  246000    21.757714 -0.028591576    64.807958     310.5961          600          600          600 -0.019806533    34403.228 5.9070443e-05 
  247000    17.949214 0.0071911004    60.586001    290.36211          600          600          600  0.011652889    34827.445 5.9070443e-05 
  248000    15.484704 -0.0011770455    61.225165    293.42534          600          600          600 -0.0013451486    36473.795 5.9070443e-05 
  249000    22.031944 -0.026400033     61.28243    293.69979          600          600          600 -0.0090226012    37973.654 5.9070443e-05 
  250000    24.292551 -0.012571139     58.81255    281.86274          600          600          600 -0.036918988    36481.726 5.9070443e-05 
  251000    13.488644 -0.0081302365    61.876249    296.54571          600          600          600 -0.012470705    35363.337 5.9070443e-05 
  252000    14.245755  -0.02057927     63.90403    306.26397          600          600          600 -0.023747555    37907.416 5.9070443e-05 
  253000    17.579679 0.0020891341    66.251973    317.51663          600          600          600  0.011620245    34128.612 5.9070443e-05 
  254000    9.7943643  0.017926879    66.393517    318.19499          600          600          600   0.02122308    34203.198 5.9070443e-05 
  255000    14.227646  0.011010884    71.639283    343.33564          600          600          600 0.0094551785    35160.567 5.9070443e-05 
  256000    14.867969 0.0037783605    55.859018    267.70776          600          600          600 0.0023178414    35794.601 5.9070443e-05 
  257000    17.005137 0.00028921939    69.611913    333.61934          600          600          600 -0.0068013581     35901.53 5.9070443e-05 
  258000    12.657271 -0.012384545    61.807446    296.21596          600          600          600 -0.018954277    36551.032 5.9070443e-05 
  259000    15.793674 -0.017739327    63.158654    302.69171          600          600          600 -0.008661678    36969.855 5.9070443e-05 
  260000    27.060444 0.0017266339    62.038675    297.32414          600          600          600 -0.0068217586    36722.882 5.9070443e-05 
  261000    20.473294 0.0075859173    67.843718    325.14516          600          600          600 -0.0036245406     35564.54 5.9070443e-05 
  262000    17.870873  0.001243176    70.129747     336.1011          600          600          600 -0.0077790465    36915.191 5.9070443e-05 
  263000     19.66872  0.028135077    61.816998    296.26174          600          600          600  0.030464773    37660.648 5.9070443e-05 
  264000    15.761978  0.018410117    57.170889    273.99498          600          600          600  0.023754934    37119.705 5.9070443e-05 
  265000    19.379077 -0.0076116193    61.534078    294.90583          600          600          600  0.012882007    39690.223 5.9070443e-05 
  266000    18.693798 -0.0054164691    54.757859    262.43038          600          600          600 -0.021093774    40293.427 5.9070443e-05 
  267000    21.288961 -0.0022413442    58.842473    282.00615          600          600          600  0.016811076    40427.027 5.9070443e-05 
  268000    17.891755 -0.010963827    60.918481    291.95554          600          600          600 -0.008940625    40124.977 5.9070443e-05 
  269000    14.281443 -0.013844132     60.40922    289.51488          600          600          600 -0.009357402    37659.295 5.9070443e-05 
  270000    19.538911  0.018431304    65.136636    312.17131          600          600          600  0.020133263    34920.814 5.9070443e-05 
  271000    19.167733 0.0022605229    59.569736     285.4916          600          600          600  0.001437549    36855.506 5.9070443e-05 
  272000    26.949615 -0.0045318882    60.108672    288.07448          600          600          600 -0.011358612    35802.545 5.9070443e-05 
  273000    16.427283 -0.018331073    57.053848    273.43405          600          600          600 -0.018227537    37147.321 5.9070443e-05 
  274000    13.603197 0.0015804661    64.260833    307.97397          600          600          600  0.016287268    34947.874 5.9070443e-05 
  275000    23.754728 -0.0009876013    70.557767    338.15241          600          600          600 0.00064762219    34746.372 5.9070443e-05 
  276000     23.05008  0.029883414    63.358804    303.65094          600          600          600  0.016552695    34364.049 5.9070443e-05 
  277000    16.523682 -0.013239774    54.008496    258.83902          600          600          600  0.013106296    37666.397 5.9070443e-05 
  278000    16.945911   0.01144007    66.442836    318.43135          600          600          600  0.014298304    37245.291 5.9070443e-05 
  279000    19.387576 0.0053691358    61.499997    294.74249          600          600          600   0.01399707    38868.178 5.9070443e-05 
  280000    18.669708  0.011318088    66.468386     318.5538          600          600          600   0.01130791    39441.651 5.9070443e-05 
  281000    22.583904 0.0025259761    55.184839    264.47671          600          600          600  0.019120956    38517.664 5.9070443e-05 
  282000    13.706557 -0.0088900083    63.310136     303.4177          600          600          600 -0.0032585825    37547.369 5.9070443e-05 
  283000    25.346807 0.00057233758    68.057647    326.17043          600          600          600 -0.019954462      35010.3 5.9070443e-05 
  284000    17.128452 0.0061775755    51.386967    246.27518          600          600          600 -0.015260315    38874.303 5.9070443e-05 
  285000     16.98235 -0.011959186    61.541364    294.94075          600          600          600 0.0076964989    38886.196 5.9070443e-05 
  286000    18.854435  0.022756173    68.499204    328.28662          600          600          600  0.011830913    38150.499 5.9070443e-05 
  287000     21.94469  -0.01167996    59.942572    287.27844          600          600          600 -0.005233784    37837.313 5.9070443e-05 
  288000    15.242598  0.016993309    69.325919     332.2487          600          600          600  0.016825087    37942.051 5.9070443e-05 
  289000    20.387793 -0.0085170928    59.848122    286.82578          600          600          600 -0.022593453    38744.668 5.9070443e-05 
  290000    13.792851 -0.0056529113    72.319293    346.59463          600          600          600 -0.004434931    36388.673 5.9070443e-05 
  291000    13.312097 -0.0045394039    68.369901    327.66693          600          600          600 -0.0038634351    34383.205 5.9070443e-05 
  292000    16.297726 0.0073645605    62.402104    299.06589          600          600          600 -0.008537815    34353.635 5.9070443e-05 
  293000    16.819283 0.00018913504    71.018139    340.35877          600          600          600 -0.0095135073    36137.544 5.9070443e-05 
  294000    15.226547 -0.0060856567     67.08649     321.5161          600          600          600 -0.0022941645    34724.797 5.9070443e-05 
  295000    12.456293 0.0095891533    65.132823    312.15304          600          600          600 0.0042236496    33865.999 5.9070443e-05 
  296000    18.850323 0.0066365734    59.765564    286.43012          600          600          600  0.016041096    34856.677 5.9070443e-05 
  297000    18.607112 0.0052519854    66.542885    318.91084          600          600          600 0.0068727893    36004.773 5.9070443e-05 
  298000    17.164515 -0.039686511    66.215089    317.33986          600          600          600 -0.039438052    35028.721 5.9070443e-05 
  299000    18.867049 -0.027641503    61.791533     296.1397          600          600          600 -0.024126269    33321.184 5.9070443e-05 
  300000    19.139335 -0.0070013187    52.346096    250.87186          600          600          600  0.009867683    32639.228 5.9070443e-05 
  301000    13.202905  0.017210297    49.719633    238.28438          600          600          600  0.012000178     33161.01 5.9070443e-05 
  302000    15.268155 0.0018403748    60.009774    287.60051          600          600          600 0.0072633677    33788.247 5.9070443e-05 
  303000    15.909453  0.006353292    60.311129    289.04477          600          600          600  0.017850156    33592.055 5.9070443e-05 
  304000    14.731654  0.015258058    55.954838    268.16698          600          600          600  0.021756701    34503.982 5.9070443e-05 
  305000    22.804273 -0.019586538    64.933909    311.19973          600          600          600 -0.0038198188    35953.232 5.9070443e-05 
  306000    12.279676  0.020536491    61.095255    292.80274          600          600          600    0.0132858    37530.571 5.9070443e-05 
  307000    17.339431 -0.0090465878    60.870818    291.72712          600          600          600 -0.0019938342    38251.049 5.9070443e-05 
  308000    21.089031 -0.014281299    60.476713    289.83834          600          600          600 -0.034440731    37608.307 5.9070443e-05 
  309000    10.411271 -0.012808388    52.188873    250.11836          600          600          600 -0.034255606    36407.309 5.9070443e-05 
  310000    16.259623 0.0098614675    64.588256    309.54316          600          600          600 -0.0021156165    37670.457 5.9070443e-05 
  311000    15.358753 -0.0010137407    64.556146    309.38928          600          600          600 0.0077271541    36348.938 5.9070443e-05 
  312000    11.917958   0.01564231    67.764438    324.76521          600          600          600 0.0082318734    35896.307 5.9070443e-05 
  313000    19.526076 -0.025532728    57.428405    275.22914          600          600          600 -0.022626773    36418.057 5.9070443e-05 
  314000    29.322805 -0.0048270483    61.957313    296.93421          600          600          600 -0.0006133287    36475.063 5.9070443e-05 
  315000    12.281609 0.0062304013    66.206764    317.29996          600          600          600  0.024741225    36651.322 5.9070443e-05 
  316000    23.456931 -0.012336889    93.710409    449.11286          600          600          600 -0.0061546847    35935.058 5.9070443e-05 
  317000    18.733529 -0.0034301073    64.804112    310.57767          600          600          600 -0.011172619    36482.995 5.9070443e-05 
  318000    16.995961  0.018022063    67.731846    324.60901          600          600          600  0.026400032    34702.961 5.9070443e-05 
  319000    17.971129 0.0012831727    58.701733    281.33164          600          600          600 -0.0084204074    34262.991 5.9070443e-05 
  320000     17.41551 -0.0073623311    62.298647    298.57007          600          600          600 -0.0083307539    34193.997 5.9070443e-05 
  321000    21.198568 0.0025833591    57.851229    277.25555          600          600          600  0.020265392    32092.307 5.9070443e-05 
  322000     24.68265 -0.011424501     62.95297    301.70595          600          600          600  -0.02542814    32746.254 5.9070443e-05 
  323000    8.5660549 -0.0046376708    63.841899     305.9662          600          600          600 -0.020473478    33608.744 5.9070443e-05 
  324000    15.712865  0.013377951    58.971343    282.62376          600          600          600 0.00023536702    32626.533 5.9070443e-05 
  325000    18.459717 -0.019829533     59.66911    285.96786          600          600          600 -0.048940591    36370.372 5.9070443e-05 
  326000     16.15042 -7.8218915e-05    61.796611    296.16403          600          600          600 -0.017058091    36314.635 5.9070443e-05 
  327000     18.87396  0.010597712    68.323519    327.44464          600          600          600  0.028162281    35969.881 5.9070443e-05 
  328000    15.740096 -0.0038456841    75.133746    360.08307          600          600          600 0.0066857713    36351.774 5.9070443e-05 
  329000     16.39588 -0.0054178775    58.262563    279.22689          600          600          600 -0.0062442701      37295.3 5.9070443e-05 
  330000    20.510864 0.0020018317    70.672301    338.70132          600          600          600 0.00056935663    38218.982 5.9070443e-05 
  331000    10.243013 -0.0063601711    67.243145    322.26688          600          600          600 0.0017908823     34944.38 5.9070443e-05 
  332000    11.669701 0.0026049666    67.255957    322.32828          600          600          600 -0.0017620527    34120.283 5.9070443e-05 
  333000    14.507243  0.010660063    60.879719    291.76977          600          600          600 0.0052981426    32940.423 5.9070443e-05 
  334000    13.681074 -0.0089102612    68.498057    328.28113          600          600          600 -0.014413678     33573.77 5.9070443e-05 
  335000    22.122518 0.0077808194    60.374998    289.35087          600          600          600 -0.00028984985    35730.871 5.9070443e-05 
  336000     15.05383  0.011165614    75.526198    361.96392          600          600          600 0.0081866273    34688.611 5.9070443e-05 
  337000    21.070979 -0.012961136    56.819717    272.31197          600          600          600 -0.0065209564    34789.891 5.9070443e-05 
  338000     19.78167 0.00025574104    59.123715    283.35402          600          600          600  -0.01949145    36596.318 5.9070443e-05 
  339000    20.889943 -0.010044972    60.177784    288.40571          600          600          600 -0.023762931    31940.784 5.9070443e-05 
  340000    18.782773  0.014706334    67.801025    324.94055          600          600          600   0.03284335    30767.398 5.9070443e-05 
  341000    19.708971 -0.004040873    71.765568    343.94087          600          600          600 -0.010570304     32309.11 5.9070443e-05 
  342000    23.795008  0.012866816    68.074087    326.24922          600          600          600  0.010728781    31698.665 5.9070443e-05 
  343000    16.860054 -0.011916089    61.950704    296.90253          600          600          600 -0.027178313    29791.207 5.9070443e-05 
  344000    15.718263 0.0065518517    65.377632    313.32629          600          600          600 0.0030755742    28952.791 5.9070443e-05 
  345000    9.5990827 -0.013419685     60.58031    290.33484          600          600          600 -0.0079779398    31212.031 5.9070443e-05 
  346000    14.939776 -0.011509594    58.554881    280.62785          600          600          600 -0.012316255    31261.582 5.9070443e-05 
  347000    20.735787  0.013685774    65.274965    312.83426          600          600          600  0.012050457    30220.724 5.9070443e-05 
  348000     19.62151 -0.013697118    67.042628    321.30589          600          600          600 -0.0078663019     29321.16 5.9070443e-05 
  349000    17.835806 -0.032994379    59.340955    284.39515          600          600          600 -0.029982166    28255.698 5.9070443e-05 
  350000    13.530253 -0.0064068242    52.097597    249.68091          600          600          600 -0.023391628     28955.39 5.9070443e-05 
  351000    7.2325926 -0.006465413    66.459125    318.50942          600          600          600 -0.0092345335    29155.457 5.9070443e-05 
  352000    11.323699  0.016151067    70.476401    337.76246          600          600          600  0.034510781    30249.712 5.9070443e-05 
  353000    12.411665  0.011269914    61.267426    293.62788          600          600          600  0.012668981    29462.037 5.9070443e-05 
  354000    11.340505 0.0045121706    55.288108    264.97163          600          600          600 -0.0039712098    30380.298 5.9070443e-05 
  355000    21.178249 -0.0041176097     74.10334    355.14478          600          600          600  -0.02484343     31153.61 5.9070443e-05 
  356000    14.524548 -0.0020554325    71.584792    343.07449          600          600          600 -0.0087583736    31477.426 5.9070443e-05 
  357000    13.450806 -0.010858656    64.184286    307.60711          600          600          600 -0.00049908358    31824.696 5.9070443e-05 
  358000    11.806148 0.0022099819    51.248323    245.61072          600          600          600  0.014710118    32542.491 5.9070443e-05 
  359000    9.2327827 0.0029635423    71.044945    340.48724          600          600          600 -0.0020772588    32291.449 5.9070443e-05 
  360000     18.33632 -0.017145862    68.961233    330.50092          600          600          600 -0.021058755    32614.863 5.9070443e-05 
  361000    16.795694 -0.0024727682    73.631438    352.88317          600          600          600 -0.0050865959    33853.425 5.9070443e-05 
  362000    15.357937 -0.00077335593    67.721096    324.55749          600          600          600  0.014656765    34282.875 5.9070443e-05 
  363000    23.358858 0.0029667686    55.155021    264.33381          600          600          600 -0.012662541    33902.954 5.9070443e-05 
  364000    12.317821 0.0081530455    70.424591    337.51416          600          600          600  0.012326939    35043.647 5.9070443e-05 
  365000    19.864936 0.0058322062    62.472721    299.40433          600          600          600 0.0051787664    30975.076 5.9070443e-05 
  366000    18.830204 -0.0086308012    58.631174    280.99349          600          600          600 0.0035528574    31138.114 5.9070443e-05 
  367000    18.272702 -0.0060989632     59.25676    283.99164          600          600          600 -0.022411573    34573.379 5.9070443e-05 
  368000    23.386436  0.010801857    58.358218    279.68533          600          600          600  0.018696311    36717.417 5.9070443e-05 
  369000    15.978035 0.0023616252    69.156648    331.43746          600          600          600  0.007200038    35116.116 5.9070443e-05 
  370000    13.932692  0.012072736    53.456917    256.19554          600          600          600   0.02454877    31885.664 5.9070443e-05 
  371000    15.698252 -0.032066318    54.929378     263.2524          600          600          600 -0.035653849    31389.322 5.9070443e-05 
  372000    13.232509 0.0059202473    70.238555    336.62257          600          600          600 0.00026862164    32016.366 5.9070443e-05 
  373000    12.379743 -0.0060297366    65.665617    314.70648          600          600          600 -0.0043331405    33057.772 5.9070443e-05 
  374000    25.322547 -0.034345521    68.547405    328.51763          600          600          600 -0.021768937     33631.65 5.9070443e-05 
  375000    14.654883 0.0009855639    63.592453    304.77071          600          600          600 -0.0097643317    32814.658 5.9070443e-05 
  376000    15.099021 -0.013724027    69.500273     333.0843          600          600          600 -0.015302411    32546.784 5.9070443e-05 
  377000    16.033973  0.014512358    67.824219    325.05171          600          600          600  0.020819841     31874.76 5.9070443e-05 
  378000    15.657743  0.035562214    69.758773    334.32318          600          600          600  0.044811232    35504.931 5.9070443e-05 
  379000    13.758853 -0.027751583    62.893618    301.42151          600          600          600 -0.011254694     32922.84 5.9070443e-05 
  380000    10.076737 0.00050940698    65.293186    312.92158          600          600          600  0.015410746    34905.411 5.9070443e-05 
  381000    13.157386  0.020864095    59.446417    284.90059          600          600          600  0.011504725    35630.099 5.9070443e-05 
  382000     15.41346 0.00087024011    56.270845    269.68146          600          600          600 0.0017094653    33918.033 5.9070443e-05 
  383000    16.923606 0.0040034682    64.609559    309.64526          600          600          600  0.020068632    34749.826 5.9070443e-05 
  384000    13.795188 -0.0039985077    77.039658    369.21727          600          600          600 -0.0039439602    32252.961 5.9070443e-05 
  385000    15.310619 -0.010388662    59.941048    287.27114          600          600          600 -0.025540436    33430.072 5.9070443e-05 
  386000    29.594299 -0.016438027    64.497723    309.10928          600          600          600 -0.014450423    35933.826 5.9070443e-05 
  387000     14.20262   0.01220303    56.632273    271.41363          600          600          600 -0.0038639162    31876.698 5.9070443e-05 
  388000    12.566123   0.00330243    66.971125    320.96321          600          600          600  0.016319922    32263.132 5.9070443e-05 
  389000    20.483651 -0.020556679    51.880366    248.63982          600          600          600 -0.016777922    32199.972 5.9070443e-05 
  390000    12.518886  0.014425383    55.053697    263.84821          600          600          600 0.0049025407    32921.807 5.9070443e-05 
  391000    10.065054 -0.0015380988    66.727227    319.79431          600          600          600 0.0003518637    35075.297 5.9070443e-05 
  392000    20.012773 -0.0022359099     70.43042    337.54209          600          600          600 -0.0076066667    35592.305 5.9070443e-05 
  393000    20.390512 0.0016095189    67.880628    325.32206          600          600          600 0.0067841178     33868.46 5.9070443e-05 
  394000    25.260996  -0.00757281    56.377613    270.19315          600          600          600 -0.025494736    33214.843 5.9070443e-05 
  395000    17.478084  0.017908267    62.262674    298.39767          600          600          600  0.019101898    32489.806 5.9070443e-05 
  396000    22.503261 0.0034437272    65.220187    312.57173          600          600          600   0.02682893    34130.834 5.9070443e-05 
  397000    18.375497  0.010248207    67.965562    325.72911          600          600          600  0.018097172    35051.847 5.9070443e-05 
  398000    23.591981 -0.010136455    62.480033    299.43937          600          600          600 -0.018855816    35384.519 5.9070443e-05 
  399000    16.875769 -0.017140666    63.956156    306.51379          600          600          600 -0.0080921543    36747.334 5.9070443e-05 
  400000    15.283458 -0.016343747    72.794601    348.87257          600          600          600 -0.016596974    34593.624 5.9070443e-05 
  401000     20.05376 -0.012017678    60.992828    292.31186          600          600          600 -0.013044774     35205.13 5.9070443e-05 
  402000    15.501886 -0.011847454    57.630286    276.19667          600          600          600 -0.0035941782    32454.861 5.9070443e-05 
  403000    11.921773 0.0084716433    69.446242    332.82536          600          600          600 0.0026688899    31806.596 5.9070443e-05 
  404000    19.609814 -0.0090894272    57.019111    273.26757          600          600          600 -0.019591486    32316.329 5.9070443e-05 
  405000    9.4954102  0.012433718    67.521955     323.6031          600          600          600  0.012368522    31102.325 5.9070443e-05 
  406000    8.2998224 0.00078346303    54.840416    262.82605          600          600          600 0.0027035316    30229.872 5.9070443e-05 
  407000      18.6722  0.014766665    69.582178    333.47684          600          600          600  0.020876138    27954.758 5.9070443e-05 
  408000    15.295346 -0.00084132047    54.692746    262.11833          600          600          600  0.016265578    27905.657 5.9070443e-05 
  409000    15.658531 -0.0030675575    65.970255    316.16648          600          600          600 -0.0063457679    26621.205 5.9070443e-05 
  410000    16.729664 -0.0017421988    60.874212    291.74338          600          600          600 -0.0072472727    25145.858 5.9070443e-05 
  411000    20.352662 -0.028733774    65.033093    311.67507          600          600          600 -0.0093250869    26362.359 5.9070443e-05 
  412000    6.8594094  0.017628137     73.20159    350.82309          600          600          600  0.011549789    25267.196 5.9070443e-05 
  413000    26.003342 -0.011392638     57.77081    276.87013          600          600          600 -0.015977152    28589.275 5.9070443e-05 
  414000    21.432316 -0.012643008    72.435706    347.15255          600          600          600 -0.0081368822    29731.023 5.9070443e-05 
  415000    17.130826   0.01784924    61.490041    294.69478          600          600          600  0.014035163     31623.62 5.9070443e-05 
  416000    20.721668 0.0050909096    65.020037     311.6125          600          600          600  -0.01268906    30079.633 5.9070443e-05 
  417000    16.125203 0.00067417436    67.310435    322.58937          600          600          600 -0.00033917384    30827.097 5.9070443e-05 
  418000    14.017959 0.0050718801     58.36332    279.70978          600          600          600  0.019732096    30105.973 5.9070443e-05 
  419000    24.051005 -0.012532979    65.264674    312.78494          600          600          600 -0.020210471    27778.503 5.9070443e-05 
  420000    20.199454 0.00038873663    67.422272    323.12536          600          600          600 -0.0012711275    32212.337 5.9070443e-05 
  421000    17.089974 0.0061979009    79.312218    380.10865          600          600          600  0.015532099    32929.561 5.9070443e-05 
  422000    18.253732 -0.0022130159    67.217977    322.14626          600          600          600  0.006020789    33955.652 5.9070443e-05 
  423000    14.374806    0.0129265    69.033156    330.84562          600          600          600 0.0073567294    35124.644 5.9070443e-05 
  424000     17.63829 0.00082899945     57.30035    274.61543          600          600          600 0.0034709706    35654.632 5.9070443e-05 
  425000    20.468952 -0.0077167806    88.265992    423.02016          600          600          600 -0.00049808474    35589.587 5.9070443e-05 
  426000    22.417414 -0.0095931492    64.051677    306.97157          600          600          600 -0.016689538    35975.126 5.9070443e-05 
  427000    22.572602 -0.038911708    63.347969    303.59901          600          600          600 -0.032252059    33805.403 5.9070443e-05 
  428000    21.557719 -0.00067091077    59.389277    284.62674          600          600          600 -0.0036301139    34391.663 5.9070443e-05 
  429000    18.015142    0.0104816    60.230562    288.65865          600          600          600 0.0032904839    35471.001 5.9070443e-05 
  430000    9.5248636  0.015282439    63.055899    302.19925          600          600          600  0.012228122    33985.917 5.9070443e-05 
  431000    14.239024 0.0052674195    64.116154    307.28058          600          600          600 0.0046050677    34383.205 5.9070443e-05 
  432000    13.608717 -0.0066422799    77.075779    369.39038          600          600          600 -0.0018386245    33013.018 5.9070443e-05 
  433000    17.632315 -0.0017616818    62.120398     297.7158          600          600          600 -0.0052573781    34950.203 5.9070443e-05 
  434000    18.054447 -0.0094989475    61.840601    296.37486          600          600          600 -0.0080573625    35914.442 5.9070443e-05 
  435000    8.5431907 0.0035973819    67.283861    322.46201          600          600          600 0.0074824743    36031.063 5.9070443e-05 
  436000    21.405696 0.0065888106    63.220006    302.98574          600          600          600   0.01495612    34108.629 5.9070443e-05 
  437000    13.344587 -0.00014327127    67.828347     325.0715          600          600          600 -0.014046007    33341.049 5.9070443e-05 
  438000    13.233953 0.0010523995    65.640128    314.58433          600          600          600 -0.006408223    32588.255 5.9070443e-05 
  439000    10.744843 0.0074455409    68.212575    326.91294          600          600          600 0.0062307667    32152.087 5.9070443e-05 
  440000    11.014094 -0.016265791     64.52574    309.24355          600          600          600 -0.021219004    31725.999 5.9070443e-05 
  441000    14.346914  0.023186053    72.517002    347.54216          600          600          600  0.010425952    32405.464 5.9070443e-05 
  442000    14.196248 -0.0048221143    69.409704    332.65025          600          600          600 -0.0025379373    35370.793 5.9070443e-05 
  443000    18.495484 0.0017613521    53.331755    255.59569          600          600          600 -0.0029861379    33935.047 5.9070443e-05 
  444000    23.891763 -0.0091079389    71.908152    344.62421          600          600          600  0.012659891     32877.42 5.9070443e-05 
  445000    15.171704 -0.018865709    60.578761    290.32742          600          600          600 -0.026512509    37535.945 5.9070443e-05 
  446000    13.911733 -0.0042856506    66.505222    318.73034          600          600          600 0.0099820127    36929.167 5.9070443e-05 
  447000    22.829131 -0.016813009    71.966867    344.90561          600          600          600 -0.011308004    34799.416 5.9070443e-05 
  448000    16.770898 -0.029853535    68.756969    329.52198          600          600          600 -0.032671041      37932.1 5.9070443e-05 
  449000    11.945541   0.01517613    61.517481    294.82628          600          600          600 -0.0010762294    39167.988 5.9070443e-05 
  450000    14.973875  0.011965298    64.424667    308.75915          600          600          600 0.0081375596    37155.548 5.9070443e-05 
  451000    20.041164 0.00063299856    64.816688    310.63794          600          600          600  0.007364191    36860.688 5.9070443e-05 
  452000    21.584688 -0.0013889875    61.429262    294.40349          600          600          600  0.011976257    37418.406 5.9070443e-05 
  453000    18.072805    0.0278337    68.632063    328.92336          600          600          600  0.040095213     36490.93 5.9070443e-05 
  454000    11.185283  0.003340073    60.073814    287.90742          600          600          600  0.010464753    39452.409 5.9070443e-05 
  455000    16.716861 -0.0093682641    58.222233    279.03361          600          600          600 -0.016079682    36392.778 5.9070443e-05 
  456000    20.149367 -0.0098519459     56.78091    272.12598          600          600          600 -0.010306057    37320.188 5.9070443e-05 
  457000    13.555013 -0.022514276    50.156921    240.38011          600          600          600 -0.019070741    36220.242 5.9070443e-05 
  458000     16.38897 -0.006233978    60.258985    288.79487          600          600          600 0.0089061397    37437.778 5.9070443e-05 
  459000    20.982631 -0.00028870042    54.514704    261.26505          600          600          600 0.0042322287    38943.965 5.9070443e-05 
  460000    16.572677 0.00087895821     69.29617    332.10613          600          600          600  0.010155112    41330.522 5.9070443e-05 
  461000    21.917474  0.015566034    59.704087    286.13549          600          600          600 -0.001103152    39441.651 5.9070443e-05 
  462000    19.660751 -0.0090177731    57.696647    276.51471          600          600          600  0.013523714    38714.627 5.9070443e-05 
  463000    6.3243682 0.00047318681     65.85485    315.61339          600          600          600  0.010325127    35839.869 5.9070443e-05 
  464000    14.559471 -0.0058579517    46.792354    224.25522          600          600          600 -0.0095254873    36159.663 5.9070443e-05 
  465000    18.332553  0.010071937    55.202497    264.56134          600          600          600 -0.0022285292    37795.716 5.9070443e-05 
  466000    12.304892 0.00025762625    56.634093    271.42235          600          600          600 -0.013660375    38101.287 5.9070443e-05 
  467000    20.404094 0.0033507675     65.70196    314.88066          600          600          600 -0.0024779794    37166.413 5.9070443e-05 
  468000    20.165923  0.002627441    62.042094    297.34053          600          600          600   0.01985446    39121.956 5.9070443e-05 
  469000     15.72478  0.012178133    70.525658    337.99853          600          600          600 0.00067499796    36703.922 5.9070443e-05 
  470000    20.985442 -0.0051453329    67.093278    321.54863          600          600          600 0.0049628209    38380.557 5.9070443e-05 
  471000    11.908489 0.0068325847    65.842193    315.55273          600          600          600  0.014787831    38554.841 5.9070443e-05 
  472000    17.616878 -0.0038507804    72.883927    349.30067          600          600          600 -0.014730155    38711.769 5.9070443e-05 
  473000    12.072569 -0.0080365169    59.936589    287.24976          600          600          600 -0.00080707578    29377.226 5.9070443e-05 
  474000    18.740286 -0.0056848856    58.522534    280.47282          600          600          600 0.0017848078    36368.795 5.9070443e-05 
  475000    17.281778  0.011552953    60.726615    291.03601          600          600          600  0.013936208    36601.747 5.9070443e-05 
  476000    12.334964 0.0032422368    56.481505    270.69106          600          600          600 0.0030957647    37184.535 5.9070443e-05 
  477000    14.990392 -0.0084696702    55.854395     267.6856          600          600          600 -0.022057118    39531.984 5.9070443e-05 
  478000    13.549129 -0.0056207386    67.744812    324.67115          600          600          600  0.014036478    37204.985 5.9070443e-05 
  479000    12.133813 -0.0013906497    50.644921    242.71888          600          600          600  0.017157849    36552.624 5.9070443e-05 
  480000    8.0557178  0.021822726    64.711582    310.13421          600          600          600 0.0062626461     36417.74 5.9070443e-05 
  481000    15.603423 -0.0010492866    65.495059    313.88907          600          600          600 -0.010366229    37623.825 5.9070443e-05 
  482000    26.275352 -0.0025748942    56.607607    271.29541          600          600          600 0.0082777257    37713.135 5.9070443e-05 
  483000    21.723437  0.023538766    64.317778    308.24688          600          600          600  0.023166637    37730.097 5.9070443e-05 
  484000    13.046636 -0.0041024226    61.997033    297.12457          600          600          600 0.0013543259    38525.094 5.9070443e-05 
  485000    15.030056  0.017156982    61.657187    295.49584          600          600          600 0.0053838621    40154.172 5.9070443e-05 
  486000    14.597428 -0.0058786787    65.795506    315.32898          600          600          600  0.010569197    37442.122 5.9070443e-05 
  487000    12.578931 -0.0054288888    69.235033    331.81313          600          600          600 -0.0046905572    37105.585 5.9070443e-05 
  488000    12.489894  0.005090276    70.353204    337.17203          600          600          600    0.0217543    35384.519 5.9070443e-05 
  489000    22.131183 0.0025694194     61.77932    296.08116          600          600          600 -0.0049889376    34492.348 5.9070443e-05 
  490000    21.809114 -0.0021079924    58.171875    278.79227          600          600          600  0.013540738    36956.174 5.9070443e-05 
  491000    16.034943  0.021120194    64.846019    310.77851          600          600          600  0.013572523    35353.203 5.9070443e-05 
  492000    22.200837 0.0021805901    59.795985    286.57591          600          600          600 -0.0076931202     33563.83 5.9070443e-05 
  493000     25.59897 0.0055122022    61.234797    293.47151          600          600          600 -0.00012841313    32721.474 5.9070443e-05 
  494000     21.37104 -0.016975148    67.964148    325.72233          600          600          600 -0.027005055    32548.804 5.9070443e-05 
  495000    17.184142 0.00014058962    64.816297    310.63606          600          600          600  0.013120426    35094.079 5.9070443e-05 
  496000    16.217544 0.0076160338    61.494026    294.71388          600          600          600 0.0022930276     36261.89 5.9070443e-05 
  497000    15.451513  0.010760415    63.193143      302.857          600          600          600   0.01601124     34547.18 5.9070443e-05 
  498000    17.152922 0.0049607142    62.584735    299.94117          600          600          600 -0.0020993173    37365.071 5.9070443e-05 
  499000     15.39738 -0.011998999    52.303045    250.66554          600          600          600 -0.014529706    35794.907 5.9070443e-05 
  500000    20.359063  0.013360376     58.92253    282.38983          600          600          600  0.016449815    36701.032 5.9070443e-05 
  501000    22.025022 0.0065445034    58.931077    282.43079          600          600          600 -0.0018264656    37097.708 5.9070443e-05 
  502000    21.890762   -0.0234703    65.039868    311.70754          600          600          600 -0.0094752955    34337.042 5.9070443e-05 
  503000    8.9389674 0.0093638792    60.885585    291.79788          600          600          600  0.011828394    33663.232 5.9070443e-05 
  504000    15.950687  0.018082846    63.363174    303.67188          600          600          600  0.018794559    34787.294 5.9070443e-05 
  505000    9.3812049 0.0059290547    68.045323    326.11137          600          600          600 -0.0089366894     34449.57 5.9070443e-05 
  506000    21.044341  0.022215759    71.514092    342.73566          600          600          600  0.021640411    35346.946 5.9070443e-05 
  507000    18.734967 0.00016235589    68.215591    326.92739          600          600          600  0.016119393    33795.325 5.9070443e-05 
  508000      18.6666 -0.0042563826    62.986668    301.86746          600          600          600   0.01155741    33709.767 5.9070443e-05 
  509000    13.134592 0.0066005919    59.556529     285.4283          600          600          600 0.0031095743    34037.768 5.9070443e-05 
  510000    24.404766 0.0044385355    69.174986    331.52534          600          600          600 -0.0050983316    33345.555 5.9070443e-05 
  511000     21.18673 -0.0039228886    66.180907    317.17604          600          600          600 -0.0086375629    33181.735 5.9070443e-05 
  512000    12.562519 0.0013892638    61.867786    296.50514          600          600          600 0.0020856531    33681.614 5.9070443e-05 
  513000     24.11117 -0.0074296258    57.334108    274.77721          600          600          600 -0.012004933    34506.536 5.9070443e-05 
  514000    20.602324 0.0021900927    69.364035    332.43138          600          600          600  0.010214198    34707.556 5.9070443e-05 
  515000    17.000775 0.0057814197    74.919893    359.05816          600          600          600  0.012057203    35546.757 5.9070443e-05 
  516000    19.732532 0.0085059857    59.761154    286.40898          600          600          600  0.026457894     33534.58 5.9070443e-05 
  517000    19.242528 0.0014395143     60.99605     292.3273          600          600          600 -0.012062631    34746.372 5.9070443e-05 
  518000    19.376061 -0.0081528801    62.280993    298.48547          600          600          600 -0.011414316    33325.685 5.9070443e-05 
  519000    16.030414 0.0078419093    69.201232    331.65113          600          600          600 0.0079092962    33455.938 5.9070443e-05 
  520000    17.141026  0.014450498    61.319697    293.87839          600          600          600  0.033502878    34261.871 5.9070443e-05 
  521000    15.740378 -0.0090823463     61.98937    297.08785          600          600          600 -0.017740761    35154.083 5.9070443e-05 
  522000    14.352159 0.0055745315    62.208242     298.1368          600          600          600  0.017823644    34242.012 5.9070443e-05 
  523000    21.129197 0.0005727513    66.121332    316.89052          600          600          600  0.010852567    34862.762 5.9070443e-05 
  524000    16.093972 0.0040779081    67.705588    324.48317          600          600          600 0.0018309145    32852.441 5.9070443e-05 
  525000    21.214055 0.0060291313     67.58124    323.88722          600          600          600 -0.0016596828    31288.167 5.9070443e-05 
  526000    16.593965 -0.0012810425    58.115406    278.52163          600          600          600  0.028583844    31133.261 5.9070443e-05 
  527000    18.053068  0.012195916    62.014141    297.20656          600          600          600 -0.011212342    32146.172 5.9070443e-05 
  528000    10.829889  0.014758795    56.216402    269.42054          600          600          600  0.034512676    32505.417 5.9070443e-05 
  529000    15.568797 -0.017867092    73.576931    352.62194          600          600          600 -0.020760133    31739.924 5.9070443e-05 
  530000    17.836748  0.015992909    62.365874    298.89226          600          600          600  0.023542981     31126.56 5.9070443e-05 
  531000    16.278313  0.021831158    73.825948    353.81536          600          600          600  0.024683571    31558.662 5.9070443e-05 
  532000    17.608549  0.010998525     68.40443    327.83241          600          600          600  0.014078589    35112.294 5.9070443e-05 
  533000    12.492926  0.019074553    61.560557    295.03273          600          600          600  0.028453972    35515.153 5.9070443e-05 
  534000    19.408924  0.003986681    66.248257    317.49882          600          600          600 -0.011575886    33713.289 5.9070443e-05 
  535000    16.039777 -0.011570908    67.074261     321.4575          600          600          600 -0.024324687    35053.312 5.9070443e-05 
  536000    22.011064 0.0060793179    69.118722     331.2557          600          600          600 0.0041752166    34013.478 5.9070443e-05 
  537000    22.147355 -0.008780817    72.454871     347.2444          600          600          600 -0.021129316      35014.1 5.9070443e-05 
  538000    18.354466 -0.0057533783     59.91664    287.15416          600          600          600 -5.1770826e-05    33452.469 5.9070443e-05 
  539000    11.962141 -0.0094532401    62.608384    300.05451          600          600          600 -0.00045530657    31233.415 5.9070443e-05 
  540000    16.045611 0.00021793868    64.091367    307.16179          600          600          600 -0.015385605    30413.783 5.9070443e-05 
  541000    11.560497 0.0075991158    71.450282    342.42984          600          600          600  0.020962962    30332.403 5.9070443e-05 
  542000    11.081306  0.023022422    57.359874     274.9007          600          600          600  0.024140017    30026.445 5.9070443e-05 
  543000    14.318935 0.0021705777    55.498351    265.97924          600          600          600 0.0033783401    29728.283 5.9070443e-05 
  544000    11.963391  0.009296068    65.225227    312.59588          600          600          600 0.00083644326    32289.212 5.9070443e-05 
[...]
 4869000     17.48395 -0.020336334    61.002996    292.36058          600          600          600 -0.023192238    28071.693 5.9070443e-05 
 4870000    25.005888 0.0085236016     65.45412    313.69287          600          600          600 -0.0014477295    28375.937 5.9070443e-05 
 4871000     18.00784 0.0047524104    54.847514    262.86006          600          600          600 -0.004637073    27715.543 5.9070443e-05 
 4872000    10.015686 -0.0021842865    64.932693     311.1939          600          600          600 0.0064156518    26281.088 5.9070443e-05 
 4873000    16.059737  0.010951934    66.967592    320.94628          600          600          600  0.011052075    27780.159 5.9070443e-05 
 4874000    19.108071  -0.00627761    58.859853    282.08944          600          600          600 -0.015062081    28780.348 5.9070443e-05 
 4875000    18.618556  0.013197537     61.51863    294.83179          600          600          600  0.013087248    28264.456 5.9070443e-05 
 4876000    12.429551 0.0016159244    60.566732    290.26977          600          600          600 -0.0070990566    28800.308 5.9070443e-05 
 4877000     6.690346 -0.0038372973    65.620435    314.48994          600          600          600  -0.01507944    27783.103 5.9070443e-05 
 4878000    11.058851 0.0029959308    58.200961    278.93166          600          600          600 0.0037793662    25282.579 5.9070443e-05 
 4879000    8.0545552 -0.006993164     63.78595    305.69806          600          600          600 -0.024665563    26181.346 5.9070443e-05 
 4880000    17.365929 0.0014066877    65.110614     312.0466          600          600          600 -0.015970643    25967.385 5.9070443e-05 
 4881000    19.465735 -0.0023306814    77.884505    373.26625          600          600          600 -0.0088323908    25647.588 5.9070443e-05 
 4882000    16.043099 -0.0049639624    73.147969    350.56611          600          600          600 0.0037597883    26119.228 5.9070443e-05 
 4883000    19.522816  0.003401991    65.329535    313.09579          600          600          600 -0.0091221264    26044.298 5.9070443e-05 
 4884000    13.845897 0.0018622156    67.736659    324.63208          600          600          600 0.0077045439     27831.22 5.9070443e-05 
 4885000    11.975883 0.0084072716    68.005232    325.91923          600          600          600 -0.0069125775    31515.742 5.9070443e-05 
 4886000    24.626792 0.0096471268    62.346231    298.79812          600          600          600  0.015735916    33854.792 5.9070443e-05 
 4887000    16.700043 0.0014050744    61.573829    295.09634          600          600          600 -0.0023710269    32919.739 5.9070443e-05 
 4888000    14.591674  0.025539842    67.115573    321.65548          600          600          600  0.038520553    31647.481 5.9070443e-05 
 4889000    10.936967 0.0044838052     75.84532    363.49333          600          600          600 -0.00077018007      30102.3 5.9070443e-05 
 4890000    14.045602 0.0084822877    66.734623    319.82976          600          600          600 0.0077325116    28064.744 5.9070443e-05 
 4891000    10.951157 -0.019976989    49.682084    238.10442          600          600          600 -0.010975419    29069.779 5.9070443e-05 
 4892000    17.639012  0.018492873     61.05493    292.60948          600          600          600 0.0019450779    33637.045 5.9070443e-05 
 4893000    15.561051 -0.0043654837    57.315422    274.68766          600          600          600 -0.022547095    32915.348 5.9070443e-05 
 4894000    16.294546  0.010053175    65.222341    312.58205          600          600          600  0.015630674     35079.11 5.9070443e-05 
 4895000    15.998217 -0.012412389    55.933484    268.06464          600          600          600 -0.043388667      32926.2 5.9070443e-05 
 4896000    22.741122 -0.0093878155    59.345799    284.41837          600          600          600 0.0040059775    33807.856 5.9070443e-05 
 4897000    14.496229 0.0038079574    58.168963    278.77831          600          600          600 0.0010713909    34944.089 5.9070443e-05 
 4898000    21.312863  0.019808636     61.02594    292.47055          600          600          600  0.015631574    36468.403 5.9070443e-05 
 4899000    8.1868154 0.0076301792    65.131384    312.14614          600          600          600 0.0054422413     36713.56 5.9070443e-05 
 4900000    16.635763 0.0063530936    67.846532    325.15865          600          600          600  0.009526859    31899.972 5.9070443e-05 
 4901000    13.870012 0.0019864156    55.233676    264.71077          600          600          600 -0.004149454    29429.788 5.9070443e-05 
 4902000    22.832897 -0.0083777942    75.850266    363.51703          600          600          600 -0.0080986043    30128.681 5.9070443e-05 
 4903000    26.769818 -0.0060518731    64.435313    308.81017          600          600          600 -0.022815464    31761.315 5.9070443e-05 
 4904000    20.755018  0.017934638    62.049316    297.37514          600          600          600  0.011292487    34681.153 5.9070443e-05 
 4905000    15.858215 0.00095993929     66.94776    320.85123          600          600          600 0.0085780553    32796.697 5.9070443e-05 
 4906000    16.463161 -0.0063268151    71.361305    342.00341          600          600          600  0.010431522    33793.964 5.9070443e-05 
 4907000    6.2379339 0.0062539039    60.607531    290.46529          600          600          600 0.0078118114    31945.892 5.9070443e-05 
 4908000    16.014571  0.012739669     55.68399    266.86892          600          600          600  0.010621694     34325.24 5.9070443e-05 
 4909000    15.804904 -0.0060766465    67.714369    324.52525          600          600          600 -0.0040410361    32757.763 5.9070443e-05 
 4910000    18.190785  0.013594025    79.052812    378.86543          600          600          600  0.024882228    31964.395 5.9070443e-05 
 4911000    14.411304 0.0078806689    78.686748    377.11105          600          600          600  0.026475953    33306.631 5.9070443e-05 
 4912000      14.3832 -0.0014786986    69.821977    334.62609          600          600          600  0.016578255    35842.319 5.9070443e-05 
 4913000    19.659936 0.0035097055    60.698255     290.9001          600          600          600 -0.0020993637    36182.122 5.9070443e-05 
 4914000    17.266799 -0.0061173924    66.518647    318.79468          600          600          600  0.016093597    34730.547 5.9070443e-05 
 4915000    16.587454   0.01795453    70.380293    337.30185          600          600          600  0.041661847    36419.322 5.9070443e-05 
 4916000    8.7990645  0.019200495    68.308425     327.3723          600          600          600  0.012803239    35507.636 5.9070443e-05 
 4917000    19.218335 -0.021353632    59.678522    286.01296          600          600          600 -0.025521907    34468.538 5.9070443e-05 
 4918000    12.832511 0.0040666382    59.235466    283.88959          600          600          600   0.01556362     36715.81 5.9070443e-05 
 4919000    20.731366 0.0084291416    56.967219    273.01888          600          600          600  0.028738692     36875.92 5.9070443e-05 
 4920000    18.470343 0.0011050351    62.541027    299.73169          600          600          600 -0.0084471093    36575.256 5.9070443e-05 
 4921000    21.671459  0.014539925    54.592487    261.63783          600          600          600  0.015985661     35767.74 5.9070443e-05 
 4922000    19.694152 -0.032729535    66.612058    319.24236          600          600          600 -0.049079591    33094.028 5.9070443e-05 
 4923000    13.878414  0.012810339    65.737352    315.05028          600          600          600 0.0026321806    32054.536 5.9070443e-05 
 4924000    17.209713 -0.014718585    55.264663    264.85927          600          600          600 -0.0089656821    32992.244 5.9070443e-05 
 4925000    14.533824 -0.012265448    63.922241    306.35125          600          600          600 -0.0073947895    34695.785 5.9070443e-05 
 4926000    21.284885  0.012665136     60.21959    288.60607          600          600          600  0.037975181    35584.756 5.9070443e-05 
 4927000    25.088809 -0.0007635042     59.04469    282.97529          600          600          600  0.010971663    36898.953 5.9070443e-05 
 4928000    18.406344 -0.011666618     63.45188    304.09701          600          600          600 -0.0011122842    36833.821 5.9070443e-05 
 4929000    13.579416 -0.021132567     57.91458    277.55916          600          600          600 -0.030365442    35985.312 5.9070443e-05 
 4930000    15.392312 -0.010713336    57.954353    277.74978          600          600          600 -0.007740995    34540.067 5.9070443e-05 
 4931000    11.094481 9.9975717e-05    68.404325    327.83191          600          600          600 -0.0011218937    35468.302 5.9070443e-05 
 4932000    11.556756 0.0051754861     59.47789    285.05142          600          600          600  0.019266913     36893.76 5.9070443e-05 
 4933000    22.843556 -0.0054855457    60.327787     289.1246          600          600          600 0.0035274202    35536.517 5.9070443e-05 
 4934000    14.533833 -0.0081462889    62.070778      297.478          600          600          600 -0.0071029068    34659.659 5.9070443e-05 
 4935000    21.365379 -0.015098672    63.318123    303.45597          600          600          600  -0.01754969    36034.778 5.9070443e-05 
 4936000    17.432156 -0.017507628     71.42729    342.31965          600          600          600 -0.015195761    33778.179 5.9070443e-05 
 4937000    21.058102   0.01106413    57.230424    274.28031          600          600          600 -0.0020193234    35088.795 5.9070443e-05 
 4938000     12.46058 -0.011585937    64.691276    310.03689          600          600          600 -0.019781202    35841.094 5.9070443e-05 
 4939000    19.268814  0.027163181    71.262632    341.53052          600          600          600  0.034382127    35185.048 5.9070443e-05 
 4940000    15.086437 -0.010265794    64.787377    310.49746          600          600          600 -0.0033822348    35664.637 5.9070443e-05 
 4941000    14.082937 -0.007192335    64.452513    308.89261          600          600          600 -0.012414128    37884.818 5.9070443e-05 
 4942000    20.214408  -0.01595613     72.82955    349.04007          600          600          600 -0.031994177    39675.956 5.9070443e-05 
 4943000    16.060486  0.023261124     70.89119    339.75036          600          600          600    0.0380145    35832.214 5.9070443e-05 
 4944000    16.148034 0.0096961046    61.931602    296.81098          600          600          600  0.018542368    34090.055 5.9070443e-05 
 4945000    13.121605 -0.027035796     57.48936    275.52127          600          600          600 -0.035774778    34254.876 5.9070443e-05 
 4946000    19.471479 0.0039196567    66.623469    319.29705          600          600          600  0.014193897     34106.41 5.9070443e-05 
 4947000    14.009701 0.00021465167    59.593922    285.60751          600          600          600 0.0048871943    35839.563 5.9070443e-05 
 4948000    19.281084 -0.0057655793    64.339689    308.35189          600          600          600 -0.010222585    36314.949 5.9070443e-05 
 4949000    13.951064    0.0135223    69.627858    333.69576          600          600          600  0.012378273    36234.322 5.9070443e-05 
 4950000    8.4156948 -0.0047065475    63.235648    303.06071          600          600          600 -0.019861866    36904.472 5.9070443e-05 
 4951000    17.624121  -0.01385805    57.180766    274.04232          600          600          600 -0.008476343    37185.854 5.9070443e-05 
 4952000    20.764936 -0.0025181039    57.719496    276.62421          600          600          600 -0.0052860901    36730.922 5.9070443e-05 
 4953000    12.396401 0.00074010079    72.471969    347.32634          600          600          600  0.008274751    36561.865 5.9070443e-05 
 4954000    22.193473 0.0025281821    56.694726    271.71294          600          600          600 -0.0010227014    33878.582 5.9070443e-05 
 4955000    15.379949 -0.031769355    59.526217    285.28303          600          600          600 -0.034155253    32137.798 5.9070443e-05 
 4956000     16.73648 -0.0081371191    60.943328    292.07462          600          600          600 -0.019626323    32665.919 5.9070443e-05 
 4957000    14.521467  0.024159451    66.407246    318.26078          600          600          600  0.028013078    32558.405 5.9070443e-05 
 4958000    15.346807  0.011084257    59.072904     283.1105          600          600          600 0.0083721582    34343.227 5.9070443e-05 
 4959000    11.790104   0.01486647    59.575342    285.51846          600          600          600  0.025001747    33605.512 5.9070443e-05 
 4960000    8.8992845  0.018139165    57.626316    276.17764          600          600          600  0.029416124    37544.345 5.9070443e-05 
 4961000    13.684305 0.0013850354    57.069612     273.5096          600          600          600 -0.0071452077    36561.865 5.9070443e-05 
 4962000    15.482024 0.0051240889    60.862456    291.68704          600          600          600  0.019055708    36805.377 5.9070443e-05 
 4963000    13.058296  0.018938377    73.489929    352.20497          600          600          600  0.019973777    34736.588 5.9070443e-05 
 4964000    14.352959 -0.021041981    62.273923    298.45158          600          600          600 -0.019510202    35683.753 5.9070443e-05 
 4965000    10.808055  0.015801942    73.548737    352.48682          600          600          600  0.034453338    35038.377 5.9070443e-05 
 4966000    18.328723 0.0020367709    63.078395    302.30706          600          600          600 -0.021354799    36577.807 5.9070443e-05 
 4967000    18.289201 -0.0089580577    69.926328     335.1262          600          600          600 -0.00043445263    35428.456 5.9070443e-05 
 4968000     16.14166 -0.0082182462    54.463002    261.01727          600          600          600 -0.015365456    35197.744 5.9070443e-05 
 4969000    11.811514   0.00666244    55.801254    267.43092          600          600          600 0.0025767674    37321.517 5.9070443e-05 
 4970000    16.742232 -0.0020576785    64.726902    310.20763          600          600          600 -0.0072013039    37594.149 5.9070443e-05 
 4971000    12.842287  0.015795521    68.948806    330.44136          600          600          600 0.0059130249    34465.988 5.9070443e-05 
 4972000    12.837651  0.010852211    57.719683     276.6251          600          600          600  0.029220417     31647.72 5.9070443e-05 
 4973000    17.975301 0.0050086226    66.330679    317.89383          600          600          600  0.014595466    33078.629 5.9070443e-05 
 4974000    20.457768 -0.020119052    63.669288    305.13895          600          600          600 -0.0061250592    31671.618 5.9070443e-05 
 4975000    13.480933 -0.0010233656    64.691612     310.0385          600          600          600 0.00081306842    34729.397 5.9070443e-05 
 4976000    17.560657 -0.017232059    59.902646    287.08709          600          600          600 0.0014728931    35888.628 5.9070443e-05 
 4977000    18.890501  0.010628922     70.73006    338.97813          600          600          600  0.020913606    35170.296 5.9070443e-05 
 4978000    15.549241  0.012145202    66.213981    317.33455          600          600          600 0.0054355172    34787.582 5.9070443e-05 
 4979000    22.319735 -0.027158756    65.851009    315.59498          600          600          600 -0.054103969    35715.354 5.9070443e-05 
 4980000    20.691771  -0.03344691    67.147206    321.80709          600          600          600 -0.033543634    34540.067 5.9070443e-05 
 4981000    14.518649 -0.018460968    62.582142    299.92874          600          600          600 -0.042054892    34693.202 5.9070443e-05 
 4982000    15.584895  0.015961501    61.420641    294.36217          600          600          600 0.0013059656    37296.958 5.9070443e-05 
 4983000    23.514008 0.0010107659    59.044052    282.97222          600          600          600 -0.014727199    35625.257 5.9070443e-05 
 4984000    26.654425 -0.0058650203    69.104469    331.18739          600          600          600  0.014650609    35583.246 5.9070443e-05 
 4985000    14.116677  0.019477967    65.149783    312.23432          600          600          600  0.019681428    37063.288 5.9070443e-05 
 4986000    17.283577 -0.013176849    55.418814    265.59805          600          600          600 -0.027996966    33901.584 5.9070443e-05 
 4987000    14.939226 -0.0078357774    62.192325    298.06052          600          600          600 -0.012238422    33485.051 5.9070443e-05 
 4988000    16.308688 -0.014880521    65.303935     312.9731          600          600          600 -0.012964025    33566.247 5.9070443e-05 
 4989000    26.465773 -0.0033946669    58.517932    280.45076          600          600          600   0.00987363    34586.493 5.9070443e-05 
 4990000    21.263501  0.001064748    65.842844    315.55585          600          600          600 -0.012373091    36123.227 5.9070443e-05 
 4991000    20.183973 -0.00076935527    56.225846     269.4658          600          600          600 0.0019284253    37429.426 5.9070443e-05 
 4992000    16.881143 0.00073301263    66.600518    319.18705          600          600          600 -0.00026286081    35835.888 5.9070443e-05 
 4993000    12.942317 -0.001915212    64.955061     311.3011          600          600          600 -0.023508683    35448.218 5.9070443e-05 
 4994000    11.719991 0.0040912365    68.465864    328.12684          600          600          600 0.00018948983    33955.927 5.9070443e-05 
 4995000    16.734264 0.0036663974    66.563259    319.00849          600          600          600 -0.00023071372    36295.151 5.9070443e-05 
 4996000    17.894783 0.0019301134    66.737492    319.84351          600          600          600   -0.0150408    34966.228 5.9070443e-05 
 4997000    20.089399 -0.019902706    58.143795    278.65769          600          600          600 -0.030105686    36532.249 5.9070443e-05 
 4998000    23.213316  0.021923103     59.34472     284.4132          600          600          600 0.0091668648    34677.712 5.9070443e-05 
 4999000    24.597475 -0.018792345    59.640274    285.82966          600          600          600  -0.01976716    36821.533 5.9070443e-05 
 5000000     15.99964 -0.010538134    69.031103    330.83578          600          600          600 -0.0049308017    34236.142 5.9070443e-05 
Loop time of 152.455 on 1 procs for 5000000 steps with 71 atoms

Performance: 28336.287 ns/day, 0.001 hours/ns, 32796.629 timesteps/s
99.7% CPU use with 1 MPI tasks x no OpenMP threads

MPI task timing breakdown:
Section |  min time  |  avg time  |  max time  |%varavg| %total
---------------------------------------------------------------
Pair    | 73.892     | 73.892     | 73.892     |   0.0 | 48.47
Bond    | 3.6282     | 3.6282     | 3.6282     |   0.0 |  2.38
Neigh   | 42.347     | 42.347     | 42.347     |   0.0 | 27.78
Comm    | 2.3784     | 2.3784     | 2.3784     |   0.0 |  1.56
Output  | 0.44804    | 0.44804    | 0.44804    |   0.0 |  0.29
Modify  | 16.699     | 16.699     | 16.699     |   0.0 | 10.95
Other   |            | 13.06      |            |       |  8.57

Nlocal:        71.0000 ave          71 max          71 min
Histogram: 1 0 0 0 0 0 0 0 0 0
Nghost:        46.0000 ave          46 max          46 min
Histogram: 1 0 0 0 0 0 0 0 0 0
Neighs:        734.000 ave         734 max         734 min
Histogram: 1 0 0 0 0 0 0 0 0 0

Total # of neighbors = 734
Ave neighs/atom = 10.338028
Ave special neighs/atom = 1.9718310
Neighbor list builds = 121974
Dangerous builds = 40
Total wall time: 0:02:32
