ITEM: TIMESTEP
0
ITEM: NUMBER OF ATOMS
71
ITEM: BOX BOUNDS pp pp pp
-3.0000000000000000e+02 3.0000000000000000e+02
-3.0000000000000000e+02 3.0000000000000000e+02
-3.0000000000000000e+02 3.0000000000000000e+02
ITEM: ATOMS id mol type q xu yu zu
1 1 2 0 6 0 0
2 1 4 0 12 0 0
3 1 12 0 18 0 0
4 1 17 0 24 0 0
5 1 5 0.75 30 0 0
6 1 18 0 36 0 0
7 1 11 0 42 0 0
8 1 11 0 48 0 0
9 1 5 0.75 54 0 0
10 1 17 0 60 0 0
11 1 15 0 66 0 0
12 1 11 0 72 0 0
13 1 7 -0.75 78 0 0
14 1 7 -0.75 84 0 0
15 1 11 0 90 0 0
16 1 10 0 96 0 0
17 1 2 0 102 0 0
18 1 18 0 108 0 0
19 1 18 0 114 0 0
20 1 15 0 120 0 0
21 1 17 0 126 0 0
22 1 11 0 132 0 0
23 1 8 -0.75 138 0 0
24 1 2 0 144 0 0
25 1 12 0 150 0 0
26 1 15 0 156 0 0
27 1 7 -0.75 162 0 0
28 1 8 -0.75 168 0 0
29 1 5 0.75 174 0 0
30 1 6 0 180 0 0
31 1 11 0 186 0 0
32 1 11 0 192 0 0
33 1 7 -0.75 198 0 0
34 1 12 0 204 0 0
35 1 11 0 210 0 0
36 1 16 0.375 216 0 0
37 1 4 0 222 0 0
38 1 11 0 228 0 0
39 1 11 0 234 0 0
40 1 15 0 240 0 0
41 1 17 0 246 0 0
42 1 4 0 252 0 0
43 1 7 -0.75 258 0 0
44 1 6 0 264 0 0
45 1 4 0 270 0 0
46 1 2 0 276 0 0
47 1 11 0 282 0 0
48 1 8 -0.75 288 0 0
49 1 8 -0.75 294 0 0
50 1 20 0 300 0 0
51 1 7 -0.75 300 6 0
52 1 5 0.75 300 12 0
53 1 6 0 300 18 0
54 1 11 0 300 24 0
55 1 2 0 300 30 0
56 1 20 0 300 36 0
57 1 18 0 300 42 0
58 1 8 -0.75 300 48 0
59 1 11 0 300 54 0
60 1 10 0 300 60 0
61 1 17 0 300 66 0
62 1 12 0 300 72 0
63 1 2 0 300 78 0
64 1 12 0 300 84 0
65 1 6 0 300 90 0
66 1 11 0 300 96 0
67 1 8 -0.75 300 102 0
68 1 18 0 300 108 0
69 1 3 0.75 300 114 0
70 1 12 0 300 120 0
71 1 7 -0.75 300 126 0
ITEM: TIMESTEP
100000
ITEM: NUMBER OF ATOMS
71
ITEM: BOX BOUNDS pp pp pp
-3.0000000000000000e+02 3.0000000000000000e+02
-3.0000000000000000e+02 3.0000000000000000e+02
-3.0000000000000000e+02 3.0000000000000000e+02
ITEM: ATOMS id mol type q xu yu zu
1 1 2 0 155.722 19.9155 23.7
2 1 4 0 159.1 17.7366 24.3205
3 1 12 0 159.84 15.3617 21.443
4 1 17 0 161.603 15.9483 18.0024
5 1 5 0.75 162.051 14.7472 14.9578
6 1 18 0 161.267 11.4198 14.2278
7 1 11 0 162.759 9.2082 11.3838
8 1 11 0 160.245 7.49874 9.01019
9 1 5 0.75 161.324 4.15774 7.68792
10 1 17 0 159.408 2.03203 5.87367
11 1 15 0 156.977 0.00465109 7.95038
12 1 11 0 157.927 -2.76136 10.173
13 1 7 -0.75 156.075 -5.91725 10.6216
14 1 7 -0.75 154.984 -6.14877 14.0915
15 1 11 0 154.093 -4.43283 17.4879
16 1 10 0 156.47 -1.56206 17.7806
17 1 2 0 157.985 -0.737829 21.3435
18 1 18 0 160.44 1.65052 19.9854
19 1 18 0 162.015 5.49626 20.4831
20 1 15 0 164.316 3.50233 22.9513
21 1 17 0 168.095 3.52507 22.1254
22 1 11 0 169.375 6.42742 20.1363
23 1 8 -0.75 168.017 10.077 19.6679
24 1 2 0 165.304 10.7632 21.811
25 1 12 0 166.163 14.0511 23.9975
26 1 15 0 165.518 17.6844 22.6345
27 1 7 -0.75 167.001 20.474 20.7043
28 1 8 -0.75 170.173 21.363 22.4206
29 1 5 0.75 171.748 18.2244 22.0553
30 1 6 0 171.907 17.8994 18.2037
31 1 11 0 173.29 15.1347 16.0122
32 1 11 0 174.911 16.6352 13.0215
33 1 7 -0.75 176.293 19.9607 14.0276
34 1 12 0 179.997 20.9774 14.3453
35 1 11 0 183.679 21.6528 13.0244
36 1 16 0.375 187.037 19.5892 11.3039
37 1 4 0 185.063 17.0771 9.27152
38 1 11 0 183.066 16.125 5.82554
39 1 11 0 182.257 12.4837 6.33501
40 1 15 0 182.121 11.866 2.68793
41 1 17 0 185.46 11.3524 1.36666
42 1 4 0 187.772 13.7609 0.0173762
43 1 7 -0.75 189.946 16.7364 -0.124032
44 1 6 0 191.804 17.6476 3.38448
45 1 4 0 189.983 21.3192 3.22084
46 1 2 0 186.386 20.8792 2.90498
47 1 11 0 184.158 23.8251 3.1344
48 1 8 -0.75 183.864 24.8554 -0.645624
49 1 8 -0.75 185.887 22.0699 -2.65255
50 1 20 0 188.539 21.963 -5.8317
51 1 7 -0.75 191.802 22.5944 -3.99828
52 1 5 0.75 195.308 21.7489 -2.65217
53 1 6 0 196.011 18.0048 -1.50788
54 1 11 0 199.81 16.7314 -1.0366
55 1 2 0 201.017 13.5676 -2.7847
56 1 20 0 198.671 13.0667 -5.88124
57 1 18 0 198.361 10.2193 -8.66228
58 1 8 -0.75 197.169 6.6442 -9.7232
59 1 11 0 194.46 3.61562 -9.99835
60 1 10 0 193.79 2.19102 -13.354
61 1 17 0 191.913 4.45951 -15.4216
62 1 12 0 192.608 8.51079 -15.9302
63 1 2 0 194.959 11.3248 -15.25
64 1 12 0 196.351 13.6804 -17.5214
65 1 6 0 196.017 17.5181 -17.4949
66 1 11 0 197.704 19.5283 -19.7741
67 1 8 -0.75 199.864 18.4201 -22.8845
68 1 18 0 198.392 15.756 -25.3875
69 1 3 0.75 196.706 15.1579 -28.5949
70 1 12 0 197.5 12.5756 -31.2877
71 1 7 -0.75 195.219 9.92311 -31.4788
ITEM: TIMESTEP
200000
ITEM: NUMBER OF ATOMS
71
ITEM: BOX BOUNDS pp pp pp
-3.0000000000000000e+02 3.0000000000000000e+02
-3.0000000000000000e+02 3.0000000000000000e+02
-3.0000000000000000e+02 3.0000000000000000e+02
ITEM: ATOMS id mol type q xu yu zu
1 1 2 0 173.028 69.7489 -8.19734
2 1 4 0 172.492 71.94 -5.193
3 1 12 0 169.433 73.031 -3.48894
4 1 17 0 170.258 75.9945 -0.814078
5 1 5 0.75 168.515 75.4498 2.33502
6 1 18 0 165.867 73.0254 1.38346
7 1 11 0 164.156 69.5122 2.55181
8 1 11 0 163.247 66.0437 4.16634
9 1 5 0.75 163.956 63.3794 1.37479
10 1 17 0 163.753 62.7785 -2.43805
11 1 15 0 162.996 58.9116 -3.08642
12 1 11 0 159.512 57.285 -2.91083
13 1 7 -0.75 159.043 55.7995 0.528539
14 1 7 -0.75 162.587 55.1505 1.94256
15 1 11 0 163.969 51.9996 4.27217
16 1 10 0 161.317 50.8039 6.65424
17 1 2 0 160.171 47.5915 4.72025
18 1 18 0 159.432 43.6479 4.12536
19 1 18 0 158.364 40.6401 6.09009
20 1 15 0 154.759 41.7872 6.94677
21 1 17 0 153.692 38.9246 9.40722
22 1 11 0 155.675 38.6365 13.0381
23 1 8 -0.75 157.416 36.4635 15.3266
24 1 2 0 157.158 32.6073 14.3662
25 1 12 0 155.975 30.9818 10.908
26 1 15 0 155.689 28.8946 7.76097
27 1 7 -0.75 157.518 25.4569 7.19536
28 1 8 -0.75 161.165 25.8217 8.83005
29 1 5 0.75 159.832 23.4039 12.0308
30 1 6 0 159.82 20.286 13.5126
31 1 11 0 159.433 16.5092 13.496
32 1 11 0 157.359 16.8689 16.5432
33 1 7 -0.75 159.482 18.2488 19.3929
34 1 12 0 162.604 20.1033 20.536
35 1 11 0 161.162 23.0323 22.682
36 1 16 0.375 159.823 26.1701 22.0776
37 1 4 0 160.039 28.6539 24.9411
38 1 11 0 161.05 32.5448 25.7803
39 1 11 0 163.964 34.4182 27.6119
40 1 15 0 163.176 36.2927 30.8831
41 1 17 0 163.831 36.7673 34.3434
42 1 4 0 164.872 38.8365 37.2119
43 1 7 -0.75 162.434 41.6227 39.0812
44 1 6 0 163.045 44.8677 40.6224
45 1 4 0 165.115 48.2937 41.0845
46 1 2 0 168.039 45.8256 40.7342
47 1 11 0 170.641 43.5776 39.3764
48 1 8 -0.75 170.059 41.6254 36.2769
49 1 8 -0.75 169.459 39.2466 33.464
50 1 20 0 169.326 36.5111 30.1936
51 1 7 -0.75 172.953 35.512 30.4588
52 1 5 0.75 176.502 35.1984 32.0456
53 1 6 0 177.504 31.5348 32.0107
54 1 11 0 179.431 28.5317 30.4093
55 1 2 0 181.688 26.0207 31.1914
56 1 20 0 184.571 23.7033 30.7235
57 1 18 0 185.569 24.5847 34.1823
58 1 8 -0.75 185.575 26.0621 38.0209
59 1 11 0 186.295 28.5157 41.0521
60 1 10 0 182.596 28.4434 42.4687
61 1 17 0 183.298 25.0862 43.896
62 1 12 0 184.482 21.5271 43.5874
63 1 2 0 183.88 18.5668 46.1034
64 1 12 0 187.269 18.7233 48.4277
65 1 6 0 185.891 20.1487 51.8727
66 1 11 0 182.877 22.246 53.5771
67 1 8 -0.75 184.454 22.6062 57.0331
68 1 18 0 182.502 21.0734 59.8433
69 1 3 0.75 181.76 23.4566 62.5395
70 1 12 0 180.416 21.7953 65.5903
71 1 7 -0.75 180.035 20.79 69.2628
ITEM: TIMESTEP
300000
ITEM: NUMBER OF ATOMS
71
ITEM: BOX BOUNDS pp pp pp
-3.0000000000000000e+02 3.0000000000000000e+02
-3.0000000000000000e+02 3.0000000000000000e+02
-3.0000000000000000e+02 3.0000000000000000e+02
ITEM: ATOMS id mol type q xu yu zu
1 1 2 0 150.153 15.3192 -9.07759
2 1 4 0 152.284 17.5796 -6.86038
3 1 12 0 154.867 17.1637 -4.29876
4 1 17 0 158.02 18.6883 -3.55176
5 1 5 0.75 161.014 21.3788 -3.04467
6 1 18 0 158.99 23.9554 -5.84931
7 1 11 0 156.816 26.3473 -8.31422
8 1 11 0 156.183 23.6161 -11.1522
9 1 5 0.75 154.872 23.2761 -14.5752
10 1 17 0 153.016 24.7051 -17.766
11 1 15 0 154.95 25.2184 -20.8534
12 1 11 0 155.592 28.0043 -23.0226
13 1 7 -0.75 156.454 30.9909 -20.6121
14 1 7 -0.75 160.489 30.4421 -19.6818
15 1 11 0 162.894 28.3217 -17.9864
16 1 10 0 163.546 24.6739 -19.0518
17 1 2 0 163.739 20.9532 -17.4791
18 1 18 0 167.412 19.3308 -18.1865
19 1 18 0 166.547 17.8508 -14.8435
20 1 15 0 164.938 20.7146 -13.2741
21 1 17 0 167.772 23.5019 -13.0077
22 1 11 0 167.976 25.822 -10.1354
23 1 8 -0.75 165.963 24.5728 -7.05916
24 1 2 0 165.486 28.3854 -6.57271
25 1 12 0 166.084 31.4135 -4.31035
26 1 15 0 168.91 32.2397 -2.1348
27 1 7 -0.75 168.731 29.52 0.542914
28 1 8 -0.75 169.888 27.971 3.75958
29 1 5 0.75 173.422 28.4827 5.24581
30 1 6 0 174.578 25.5444 6.93785
31 1 11 0 177.556 23.4239 5.1629
32 1 11 0 179.559 24.0745 1.87844
33 1 7 -0.75 182.222 21.8534 0.500081
34 1 12 0 184.745 21.6982 -2.57096
35 1 11 0 188.29 21.4229 -1.61606
36 1 16 0.375 188.742 18.927 1.19107
37 1 4 0 191.87 17.1663 2.42354
38 1 11 0 195.305 19.4776 2.83487
39 1 11 0 197.465 18.0794 5.5477
40 1 15 0 195.182 20.2336 8.21099
41 1 17 0 192.552 19.3942 10.6313
42 1 4 0 191.708 16.7926 13.1944
43 1 7 -0.75 194.299 14.332 12.0669
44 1 6 0 196.747 15.9824 14.5251
45 1 4 0 199.486 14.269 12.1808
46 1 2 0 201.608 11.5381 13.7289
47 1 11 0 203.834 11.8934 16.7926
48 1 8 -0.75 204.674 13.1284 20.3572
49 1 8 -0.75 205.464 14.968 23.7507
50 1 20 0 205.073 12.7462 27.1936
51 1 7 -0.75 202.452 11.7773 29.9654
52 1 5 0.75 200.844 13.9494 32.7484
53 1 6 0 196.98 13.1256 33.5049
54 1 11 0 195.198 13.6581 36.5728
55 1 2 0 197.738 15.0076 38.8146
56 1 20 0 200.186 12.2717 39.4279
57 1 18 0 200.46 8.87404 38.3024
58 1 8 -0.75 200.909 5.74322 36.6962
59 1 11 0 199.711 5.76153 33.0035
60 1 10 0 198.644 1.97848 31.9669
61 1 17 0 195.103 0.762835 33.2097
62 1 12 0 193.127 2.72955 30.7441
63 1 2 0 194.445 5.54733 28.2636
64 1 12 0 192.679 7.56241 25.6218
65 1 6 0 193.351 11.3485 24.8445
66 1 11 0 194.199 15.2188 24.5941
67 1 8 -0.75 192.695 16.7999 27.7515
68 1 18 0 188.756 18.3428 26.8163
69 1 3 0.75 189.961 21.7542 25.2425
70 1 12 0 192.255 23.0601 22.63
71 1 7 -0.75 193.263 26.7651 21.9388
ITEM: TIMESTEP
400000
ITEM: NUMBER OF ATOMS
71
ITEM: BOX BOUNDS pp pp pp
-3.0000000000000000e+02 3.0000000000000000e+02
-3.0000000000000000e+02 3.0000000000000000e+02
-3.0000000000000000e+02 3.0000000000000000e+02
ITEM: ATOMS id mol type q xu yu zu
1 1 2 0 218.933 24.2187 13.1193
2 1 4 0 217.802 27.7299 12.4655
3 1 12 0 219.224 27.6531 9.10762
4 1 17 0 222.124 27.459 6.51693
5 1 5 0.75 222.298 29.3244 3.06685
6 1 18 0 223.454 30.5103 -0.157406
7 1 11 0 225.122 29.437 -3.90779
8 1 11 0 222.652 29.4099 -7.1399
9 1 5 0.75 220.151 32.1962 -7.46462
10 1 17 0 221.32 35.9131 -6.63821
11 1 15 0 221.954 36.86 -2.69454
12 1 11 0 218.895 37.8708 -0.952305
13 1 7 -0.75 220.145 39.038 2.58441
14 1 7 -0.75 216.746 41.2366 3.32427
15 1 11 0 216.367 44.1816 5.93949
16 1 10 0 213.739 47.0533 6.60724
17 1 2 0 213.805 49.2295 9.58313
18 1 18 0 212.322 53.0281 9.34231
19 1 18 0 212.946 53.4473 13.2853
20 1 15 0 209.242 53.9481 13.4651
21 1 17 0 207.569 55.8345 16.1622
22 1 11 0 205.922 58.7094 13.8653
23 1 8 -0.75 206.46 59.0995 10.3168
24 1 2 0 203.977 58.6792 7.70511
25 1 12 0 201.281 58.1896 4.81499
26 1 15 0 197.683 56.3485 4.83529
27 1 7 -0.75 193.953 57.0804 5.53544
28 1 8 -0.75 191.596 54.1213 5.45549
29 1 5 0.75 193.562 51.1693 7.43652
30 1 6 0 192.849 47.5052 8.39556
31 1 11 0 191.17 44.7713 10.6676
32 1 11 0 189.805 41.7106 9.43395
33 1 7 -0.75 190.093 39.1181 12.5323
34 1 12 0 191.934 37.5208 15.2788
35 1 11 0 195.314 35.3404 15.0411
36 1 16 0.375 196.481 31.9078 13.5221
37 1 4 0 199.698 31.6187 15.6692
38 1 11 0 201.189 28.1256 15.0377
39 1 11 0 204.027 28.2403 17.8585
40 1 15 0 205.658 26.0792 20.2278
41 1 17 0 209.002 24.5544 21.3919
42 1 4 0 212.859 25.1792 22.7521
43 1 7 -0.75 216.543 24.5353 20.897
44 1 6 0 219.677 22.5117 20.06
45 1 4 0 221.772 21.8404 23.3222
46 1 2 0 222.188 17.894 23.9284
47 1 11 0 219.661 15.65 22.2979
48 1 8 -0.75 216.887 14.2033 20.1398
49 1 8 -0.75 214.314 11.4587 21.4179
50 1 20 0 211.191 9.99152 19.907
51 1 7 -0.75 211.561 7.2763 17.4164
52 1 5 0.75 211.387 4.25397 14.9153
53 1 6 0 210.489 3.59322 11.3033
54 1 11 0 211.628 0.0977614 10.0037
55 1 2 0 213.347 -3.38643 11.079
56 1 20 0 217.111 -2.77979 11.5427
57 1 18 0 218.591 -6.02178 10.7966
58 1 8 -0.75 220.831 -8.86052 11.8318
59 1 11 0 223.996 -8.12783 14.2716
60 1 10 0 225.403 -4.94573 12.9133
61 1 17 0 225.532 -1.16598 14.035
62 1 12 0 226.094 1.11878 17.3172
63 1 2 0 224.534 3.73572 19.6418
64 1 12 0 225.656 7.60531 19.9259
65 1 6 0 223.046 9.21387 21.9233
66 1 11 0 223.1 10.6142 25.585
67 1 8 -0.75 226.27 12.3574 25.9171
68 1 18 0 229.209 13.9373 24.5484
69 1 3 0.75 231.196 16.5797 26.5703
70 1 12 0 228.755 19.3687 26.0622
71 1 7 -0.75 230.112 22.2152 24.1779
ITEM: TIMESTEP
500000
ITEM: NUMBER OF ATOMS
71
ITEM: BOX BOUNDS pp pp pp
-3.0000000000000000e+02 3.0000000000000000e+02
-3.0000000000000000e+02 3.0000000000000000e+02
-3.0000000000000000e+02 3.0000000000000000e+02
ITEM: ATOMS id mol type q xu yu zu
1 1 2 0 212.496 90.3714 -30.2299
2 1 4 0 211.028 89.4388 -27.0849
3 1 12 0 212.252 86.6132 -25.0605
4 1 17 0 209.482 87.8736 -22.1206
5 1 5 0.75 206.728 87.5435 -19.5923
6 1 18 0 205.365 86.5434 -16.1835
7 1 11 0 205.705 88.7197 -13.1796
8 1 11 0 205.639 86.8172 -9.83556
9 1 5 0.75 205.509 86.2331 -6.24142
10 1 17 0 204.447 84.4156 -2.74577
11 1 15 0 206.839 83.8399 -0.0301029
12 1 11 0 205.235 83.8466 3.50207
13 1 7 -0.75 201.515 84.449 5.09139
14 1 7 -0.75 198.779 86.8609 5.9254
15 1 11 0 195.547 86.7862 3.70165
16 1 10 0 194.974 83.204 3.91792
17 1 2 0 191.648 82.8251 5.7202
18 1 18 0 188.71 80.764 7.14226
19 1 18 0 187.739 77.6203 4.92152
20 1 15 0 190.785 75.8075 3.15238
21 1 17 0 190.981 72.1613 3.73354
22 1 11 0 190.137 68.9829 2.11226
23 1 8 -0.75 189.201 67.1264 -1.2568
24 1 2 0 189.596 70.5764 -3.454
25 1 12 0 193.666 71.21 -4.61868
26 1 15 0 195.389 71.4683 -1.20378
27 1 7 -0.75 198.133 68.8148 -1.68523
28 1 8 -0.75 200.214 65.8192 -1.28177
29 1 5 0.75 197.703 64.6494 1.0579
30 1 6 0 198.072 61.1024 2.07728
31 1 11 0 198.165 59.1279 5.26199
32 1 11 0 194.933 57.6987 3.87699
33 1 7 -0.75 192.097 56.7877 1.35917
34 1 12 0 193.022 56.752 -2.22167
35 1 11 0 195.483 55.6114 -4.5934
36 1 16 0.375 198.406 53.4025 -6.10757
37 1 4 0 201.935 51.5803 -5.56278
38 1 11 0 202.195 49.7929 -8.65872
39 1 11 0 202.049 46.303 -7.5508
40 1 15 0 199.5 45.3001 -4.78113
41 1 17 0 197.715 46.3772 -1.60923
42 1 4 0 199.891 49.6528 -0.566395
43 1 7 -0.75 202.134 49.3401 2.58929
44 1 6 0 205.159 47.3141 0.539518
45 1 4 0 204.979 45.5027 4.00047
46 1 2 0 205.426 41.812 4.4525
47 1 11 0 201.888 39.8037 4.0361
48 1 8 -0.75 200.756 38.4254 7.44037
49 1 8 -0.75 203.209 36.7755 9.68009
50 1 20 0 206.209 37.3805 12.2399
51 1 7 -0.75 205.38 35.2123 15.3606
52 1 5 0.75 203.037 33.6097 16.9661
53 1 6 0 204.329 32.8318 20.4485
54 1 11 0 201.834 31.9307 23.1684
55 1 2 0 199.666 29.4585 24.7119
56 1 20 0 198.961 26.258 26.6292
57 1 18 0 201.23 23.5333 27.9942
58 1 8 -0.75 202.392 20.7184 29.998
59 1 11 0 205.623 19.5499 28.0522
60 1 10 0 205.501 15.8013 28.3814
61 1 17 0 208.914 15.1407 29.7285
62 1 12 0 211.985 16.7805 31.005
63 1 2 0 213.85 18.8219 28.1921
64 1 12 0 216.856 19.4679 26.8318
65 1 6 0 217.289 22.5729 24.2446
66 1 11 0 218.805 24.6428 21.5887
67 1 8 -0.75 220.318 27.9746 21.3325
68 1 18 0 223.14 28.3443 24.0425
69 1 3 0.75 227.045 28.7462 23.4925
70 1 12 0 229.098 30.8298 21.0671
71 1 7 -0.75 227.074 34.0973 20.6363
ITEM: TIMESTEP
600000
ITEM: NUMBER OF ATOMS
71
ITEM: BOX BOUNDS pp pp pp
-3.0000000000000000e+02 3.0000000000000000e+02
-3.0000000000000000e+02 3.0000000000000000e+02
-3.0000000000000000e+02 3.0000000000000000e+02
ITEM: ATOMS id mol type q xu yu zu
1 1 2 0 184.904 44.0405 17.6587
2 1 4 0 182.019 42.0333 16.3659
3 1 12 0 180.429 39.9919 13.0987
4 1 17 0 181.041 40.6022 9.58172
5 1 5 0.75 180.475 38.8536 6.25826
6 1 18 0 177.85 36.3669 5.39121
7 1 11 0 174.274 37.0511 6.55309
8 1 11 0 172.054 38.397 9.0733
9 1 5 0.75 168.597 39.3238 9.66308
10 1 17 0 164.947 38.8814 10.9326
11 1 15 0 161.76 39.809 12.4821
12 1 11 0 161.187 41.675 15.6383
13 1 7 -0.75 163.082 44.5175 16.9158
14 1 7 -0.75 164.779 46.1734 14.0024
15 1 11 0 167.956 47.6776 15.867
16 1 10 0 170.35 44.8876 14.0282
17 1 2 0 173.557 43.1061 12.9214
18 1 18 0 174.807 41.2775 16.226
19 1 18 0 171.202 41.6397 17.5412
20 1 15 0 169.764 38.1244 16.58
21 1 17 0 170.928 36.4358 19.61
22 1 11 0 173.178 35.0283 22.4041
23 1 8 -0.75 171.405 34.621 26.052
24 1 2 0 170.044 31.3675 24.8728
25 1 12 0 166.438 30.1719 26.0477
26 1 15 0 163.926 27.1737 26.1338
27 1 7 -0.75 166.95 24.7336 25.2261
28 1 8 -0.75 166.311 23.701 21.6735
29 1 5 0.75 165.473 21.3954 18.6197
30 1 6 0 165.891 22.9045 15.2627
31 1 11 0 168.662 24.1112 13.2515
32 1 11 0 172.789 24.2259 14.0155
33 1 7 -0.75 172.282 23.5239 17.8385
34 1 12 0 173.052 21.181 20.7175
35 1 11 0 176.122 19.1689 19.1345
36 1 16 0.375 179.4 21.0719 18.7197
37 1 4 0 181.577 23.2263 21.2776
38 1 11 0 184.046 25.7496 22.5625
39 1 11 0 185.043 28.7279 24.1955
40 1 15 0 182.033 30.4216 24.6488
41 1 17 0 181.913 33.2702 27.2935
42 1 4 0 178.559 34.0774 28.9278
43 1 7 -0.75 179.468 34.6905 32.577
44 1 6 0 180.325 31.5597 34.3398
45 1 4 0 178.809 30.4573 37.5273
46 1 2 0 176.564 27.7558 35.9772
47 1 11 0 177.604 24.1127 35.7214
48 1 8 -0.75 179.231 20.6615 35.6363
49 1 8 -0.75 179.462 17.2701 36.6871
50 1 20 0 177.064 15.4201 38.8876
51 1 7 -0.75 179.314 13.6004 41.5122
52 1 5 0.75 181.952 15.0848 43.5125
53 1 6 0 185.264 13.7582 42.1858
54 1 11 0 187.322 10.5269 43.1226
55 1 2 0 190.744 12.0485 43.7355
56 1 20 0 194.269 13.9399 43.4639
57 1 18 0 195.038 12.1187 40.2442
58 1 8 -0.75 193.645 8.55335 38.7095
59 1 11 0 194.009 5.11329 38.0766
60 1 10 0 191.724 3.34428 35.5843
61 1 17 0 192.028 -0.269018 36.5251
62 1 12 0 190.339 -3.13806 34.4953
63 1 2 0 187.907 -3.83335 31.7149
64 1 12 0 184.852 -6.31521 32.0444
65 1 6 0 184.058 -3.39301 34.4823
66 1 11 0 181.216 -0.595069 34.8584
67 1 8 -0.75 181.984 3.07703 34.2333
68 1 18 0 182.204 6.19356 32.0532
69 1 3 0.75 182.673 7.5778 35.4648
70 1 12 0 180.245 10.0991 37.2844
71 1 7 -0.75 178.13 7.40679 35.3306
ITEM: TIMESTEP
700000
ITEM: NUMBER OF ATOMS
71
ITEM: BOX BOUNDS pp pp pp
-3.0000000000000000e+02 3.0000000000000000e+02
-3.0000000000000000e+02 3.0000000000000000e+02
-3.0000000000000000e+02 3.0000000000000000e+02
ITEM: ATOMS id mol type q xu yu zu
1 1 2 0 123.309 45.3332 15.5033
2 1 4 0 126.578 45.0723 16.3622
3 1 12 0 129.141 43.4467 14.2433
4 1 17 0 130.862 40.4073 13.5484
5 1 5 0.75 134.283 40.3788 11.9376
6 1 18 0 135.571 43.8143 10.2628
7 1 11 0 138.56 46.2471 9.83948
8 1 11 0 139.523 46.368 6.25415
9 1 5 0.75 139.553 45.6893 2.66429
10 1 17 0 136.581 47.7133 1.04352
11 1 15 0 137.758 49.8199 -2.44108
12 1 11 0 136.567 48.1715 -5.83532
13 1 7 -0.75 137.236 46.6647 -9.3867
14 1 7 -0.75 140.682 45.5822 -8.47472
15 1 11 0 142.887 46.4335 -5.44698
16 1 10 0 143.488 50.0863 -6.68679
17 1 2 0 146.258 51.13 -4.35095
18 1 18 0 149.358 52.7899 -5.53858
19 1 18 0 149.478 56.3547 -3.78108
20 1 15 0 146.933 56.5472 -0.610185
21 1 17 0 147.631 53.7628 1.76237
22 1 11 0 144.946 53.0533 4.05839
23 1 8 -0.75 142.012 52.2996 5.34739
24 1 2 0 142.103 51.4388 8.97632
25 1 12 0 145.833 50.2597 9.76374
26 1 15 0 144.262 48.2049 12.4417
27 1 7 -0.75 144.269 44.6864 12.8017
28 1 8 -0.75 146.052 42.5473 10.1728
29 1 5 0.75 147.153 41.8725 6.57086
30 1 6 0 146.224 38.5897 4.41891
31 1 11 0 142.456 37.4214 4.80976
32 1 11 0 142.579 34.9967 7.59017
33 1 7 -0.75 145.34 33.6476 10.2098
34 1 12 0 148.328 33.1592 12.5416
35 1 11 0 150.341 29.7649 11.203
36 1 16 0.375 150.805 26.0796 12.3405
37 1 4 0 154.126 27.2578 13.9268
38 1 11 0 156.181 23.7741 14.3067
39 1 11 0 158.25 21.344 11.7215
40 1 15 0 159.567 18.6551 14.3685
41 1 17 0 156.597 17.1299 16.7195
42 1 4 0 158.2 19.1052 19.4335
43 1 7 -0.75 158.786 19.8164 22.9618
44 1 6 0 157.08 22.9353 25.077
45 1 4 0 155.731 21.1649 28.5326
46 1 2 0 154.126 18.2317 26.4665
47 1 11 0 154.823 14.7964 27.766
48 1 8 -0.75 156.819 11.4437 28.2866
49 1 8 -0.75 158.804 10.766 31.5029
50 1 20 0 159.717 6.95317 32.5995
51 1 7 -0.75 162.931 4.97517 32.0322
52 1 5 0.75 163.389 3.70244 28.4321
53 1 6 0 164.991 0.922103 26.2384
54 1 11 0 163.651 -2.53723 25.578
55 1 2 0 163.79 -5.67718 23.8232
56 1 20 0 163.618 -9.59989 23.91
57 1 18 0 161.426 -9.72481 27.0528
58 1 8 -0.75 162.049 -12.9561 29.0163
59 1 11 0 165.194 -14.8477 27.3704
60 1 10 0 166.83 -14.3417 23.9773
61 1 17 0 168.622 -17.4888 22.6047
62 1 12 0 170.853 -18.7656 19.9078
63 1 2 0 172.148 -15.6144 17.7417
64 1 12 0 171.892 -16.3247 13.9164
65 1 6 0 168.62 -16.4283 12.4043
66 1 11 0 166.247 -14.1163 14.3558
67 1 8 -0.75 163.771 -16.7151 15.4371
68 1 18 0 160.45 -14.7973 14.5721
69 1 3 0.75 159.904 -11.2235 15.4826
70 1 12 0 160.12 -9.14419 12.2309
71 1 7 -0.75 160.685 -6.87849 15.3065
ITEM: TIMESTEP
800000
ITEM: NUMBER OF ATOMS
71
ITEM: BOX BOUNDS pp pp pp
-3.0000000000000000e+02 3.0000000000000000e+02
-3.0000000000000000e+02 3.0000000000000000e+02
-3.0000000000000000e+02 3.0000000000000000e+02
ITEM: ATOMS id mol type q xu yu zu
1 1 2 0 170.556 23.1733 26.1584
2 1 4 0 170.654 24.4413 22.4341
3 1 12 0 171.658 25.9715 18.7812
4 1 17 0 171.403 22.8122 16.026
5 1 5 0.75 168.684 20.4811 14.4154
6 1 18 0 167.491 19.2205 10.726
7 1 11 0 168.661 18.9796 7.23166
8 1 11 0 168.452 21.5868 4.60602
9 1 5 0.75 168.389 23.8013 1.37198
10 1 17 0 169.12 27.0838 0.198617
11 1 15 0 166.218 29.7344 -0.653527
12 1 11 0 165.262 30.0325 -4.01953
13 1 7 -0.75 167.349 28.6241 -6.92988
14 1 7 -0.75 168.571 25.4802 -5.04842
15 1 11 0 171.363 24.6105 -7.76933
16 1 10 0 171.655 24.9439 -11.4355
17 1 2 0 175.488 25.2109 -12.8572
18 1 18 0 174.789 26.701 -16.1463
19 1 18 0 170.906 26.9088 -17.2728
20 1 15 0 169.661 30.2812 -16.1145
21 1 17 0 166.223 31.3212 -15.5626
22 1 11 0 164.797 30.4337 -18.8662
23 1 8 -0.75 166.995 32.8168 -21.0234
24 1 2 0 163.359 35.1124 -20.8535
25 1 12 0 163.963 36.9487 -17.729
26 1 15 0 164.071 38.2055 -14.0116
27 1 7 -0.75 166.075 41.5613 -14.1117
28 1 8 -0.75 164.398 44.219 -15.7152
29 1 5 0.75 164.332 45.7603 -12.1948
30 1 6 0 162.444 48.6905 -10.8018
31 1 11 0 162.579 50.0588 -6.84486
32 1 11 0 165.318 47.628 -5.61829
33 1 7 -0.75 165.043 46.0182 -2.07592
34 1 12 0 165.601 42.9522 -0.0979054
35 1 11 0 166.339 42.5987 3.84672
36 1 16 0.375 165.635 40.1901 6.3107
37 1 4 0 168.565 39.4286 8.28018
38 1 11 0 170.097 39.2893 11.651
39 1 11 0 171.018 37.7396 14.9637
40 1 15 0 172.776 39.1539 17.9808
41 1 17 0 172.413 36.1113 20.6789
42 1 4 0 173.864 36.7405 23.9981
43 1 7 -0.75 177.147 39.0492 23.1311
44 1 6 0 179.281 37.882 26.1781
45 1 4 0 179.367 35.2653 28.7335
46 1 2 0 178.728 36.7606 32.3124
47 1 11 0 178.62 34.9637 35.7113
48 1 8 -0.75 181.731 33.7265 37.8219
49 1 8 -0.75 184.405 35.856 40.2455
50 1 20 0 186.542 35.8078 43.4282
51 1 7 -0.75 187.871 32.2863 44.2289
52 1 5 0.75 190.468 29.9055 42.8705
53 1 6 0 190.935 32.4763 40.1687
54 1 11 0 193.912 34.5211 39.3703
55 1 2 0 191.312 36.5746 37.0615
56 1 20 0 188.271 38.4807 35.3799
57 1 18 0 186.122 35.6599 34.0505
58 1 8 -0.75 185.931 33.7191 30.7227
59 1 11 0 187.432 33.2547 27.2924
60 1 10 0 191.093 32.531 26.3189
61 1 17 0 192.662 29.1129 26.2576
62 1 12 0 195.825 29.7421 28.2573
63 1 2 0 199.223 28.3818 27.5773
64 1 12 0 201.935 27.0621 29.4583
65 1 6 0 203.764 24.0765 30.3414
66 1 11 0 206.721 22.7183 32.0061
67 1 8 -0.75 208.138 26.3579 32.6721
68 1 18 0 208.297 30.2212 31.5791
69 1 3 0.75 210 33.5169 32.0665
70 1 12 0 210.178 36.2851 29.3963
71 1 7 -0.75 208.125 37.5643 26.6902
ITEM: TIMESTEP
900000
ITEM: NUMBER OF ATOMS
71
ITEM: BOX BOUNDS pp pp pp
-3.0000000000000000e+02 3.0000000000000000e+02
-3.0000000000000000e+02 3.0000000000000000e+02
-3.0000000000000000e+02 3.0000000000000000e+02
ITEM: ATOMS id mol type q xu yu zu
1 1 2 0 138.368 -3.57923 71.4299
2 1 4 0 137.598 -5.50029 68.0996
3 1 12 0 136.625 -4.45782 64.4453
4 1 17 0 136.409 -8.1695 62.9624
5 1 5 0.75 137.82 -11.1529 61.3018
6 1 18 0 141.525 -10.9685 61.8158
7 1 11 0 144.16 -10.9621 64.3174
8 1 11 0 146.955 -13.1651 62.4167
9 1 5 0.75 147.406 -16.7941 62.905
10 1 17 0 150.679 -18.4117 63.3043
11 1 15 0 150.501 -19.6048 66.6243
12 1 11 0 148.662 -22.5426 67.9287
13 1 7 -0.75 146.682 -23.2917 71.1277
14 1 7 -0.75 144.989 -19.8431 72.3049
15 1 11 0 145.555 -16.3786 73.0532
16 1 10 0 148.284 -14.7734 71.2303
17 1 2 0 151.309 -16.4572 73.015
18 1 18 0 153.504 -16.3893 69.7849
19 1 18 0 156.814 -18.2256 70.3874
20 1 15 0 159.63 -16.9592 67.625
21 1 17 0 161.64 -14.7803 65.1662
22 1 11 0 161.739 -15.1373 61.3134
23 1 8 -0.75 161.585 -16.0769 57.5861
24 1 2 0 158.359 -14.3343 56.9647
25 1 12 0 154.599 -14.2991 57.3235
26 1 15 0 154.392 -13.286 60.9456
27 1 7 -0.75 153.551 -9.47503 61.0133
28 1 8 -0.75 155.355 -8.2201 64.4086
29 1 5 0.75 154.661 -5.39243 66.3311
30 1 6 0 154.64 -5.63117 70.219
31 1 11 0 156.627 -3.39634 72.3443
32 1 11 0 159.599 -2.38058 73.6316
33 1 7 -0.75 162.956 -1.71224 72.4221
34 1 12 0 166.043 -1.51468 70.3641
35 1 11 0 169.679 -1.22003 71.6131
36 1 16 0.375 172.132 -2.63549 74.3605
37 1 4 0 172.843 0.376032 76.622
38 1 11 0 176.727 1.60448 75.8427
39 1 11 0 178.135 4.9765 77.1074
40 1 15 0 179.385 5.60783 73.4876
41 1 17 0 181.167 4.20164 71.073
42 1 4 0 182.224 6.59839 67.9337
43 1 7 -0.75 185.457 8.15948 69.0856
44 1 6 0 187.293 6.63562 66.1414
45 1 4 0 189.359 4.54572 63.9226
46 1 2 0 188.502 3.65195 60.078
47 1 11 0 188.847 3.92224 56.1977
48 1 8 -0.75 191.091 2.76886 53.7576
49 1 8 -0.75 192.013 -0.0114143 51.5934
50 1 20 0 193.576 -2.28834 48.7214
51 1 7 -0.75 191.234 -3.5395 46.184
52 1 5 0.75 190.021 -1.78765 43.2921
53 1 6 0 188.36 1.12221 43.6364
54 1 11 0 186.003 4.46764 43.0351
55 1 2 0 183.357 4.33406 40.2621
56 1 20 0 180.213 6.69938 40.2668
57 1 18 0 177.664 7.16862 42.7376
58 1 8 -0.75 175.508 4.59485 44.0984
59 1 11 0 174.662 1.06829 44.3468
60 1 10 0 176.14 -1.97716 45.7711
61 1 17 0 178.24 -3.27595 48.7893
62 1 12 0 180.008 0.0714341 50.2926
63 1 2 0 182.307 0.1881 47.1176
64 1 12 0 185.224 -1.99906 48.4809
65 1 6 0 184.928 -4.88057 45.7268
66 1 11 0 182.536 -5.22892 43.0609
67 1 8 -0.75 178.638 -6.74106 42.8528
68 1 18 0 177.442 -9.8921 44.2683
69 1 3 0.75 178.934 -13.198 45.4824
70 1 12 0 176.103 -15.1735 43.9656
71 1 7 -0.75 173.648 -16.3197 47.0568
ITEM: TIMESTEP
1000000
ITEM: NUMBER OF ATOMS
71
ITEM: BOX BOUNDS pp pp pp
-3.0000000000000000e+02 3.0000000000000000e+02
-3.0000000000000000e+02 3.0000000000000000e+02
-3.0000000000000000e+02 3.0000000000000000e+02
ITEM: ATOMS id mol type q xu yu zu
1 1 2 0 140.84 -17.174 82.0773
2 1 4 0 142.158 -15.5422 85.3225
3 1 12 0 145.657 -14.7208 84.9136
4 1 17 0 149.186 -14.7814 83.6398
5 1 5 0.75 152.877 -13.7071 83.3071
6 1 18 0 156.521 -14.8911 84.3518
7 1 11 0 159.49 -17.4197 83.8085
8 1 11 0 160.904 -17.3069 80.13
9 1 5 0.75 158.737 -17.032 76.9253
10 1 17 0 156.829 -20.4201 76.0482
11 1 15 0 157.278 -21.4569 72.2574
12 1 11 0 159.694 -23.6262 70.2327
13 1 7 -0.75 161.33 -26.2813 68.0015
14 1 7 -0.75 161.356 -28.0952 64.5935
15 1 11 0 162.893 -31.5671 64.865
16 1 10 0 160.381 -34.7433 64.4895
17 1 2 0 162.06 -36.8139 67.2616
18 1 18 0 162.243 -34.5241 70.5433
19 1 18 0 165.758 -33.7801 69.945
20 1 15 0 169.009 -33.2431 71.573
21 1 17 0 172.485 -33.0484 73.1748
22 1 11 0 175.647 -35.0147 73.4425
23 1 8 -0.75 176.39 -36.2063 77.3046
24 1 2 0 180.23 -36.359 76.5057
25 1 12 0 183.962 -36.2646 75.2949
26 1 15 0 186.763 -37.5459 72.9162
27 1 7 -0.75 188.392 -35.5582 70.0128
28 1 8 -0.75 189.995 -32.0312 70.7003
29 1 5 0.75 193.676 -32.8357 71.9318
30 1 6 0 197.347 -31.6365 71.6899
31 1 11 0 199.261 -28.8398 73.6809
32 1 11 0 202.553 -27.3996 72.5399
33 1 7 -0.75 201.871 -25.2869 69.413
34 1 12 0 199.461 -22.467 70.2525
35 1 11 0 196.273 -21.4128 71.9276
36 1 16 0.375 192.819 -21.5452 73.7391
37 1 4 0 190.379 -19.3659 71.5444
38 1 11 0 190.319 -17.7392 68.0972
39 1 11 0 191.996 -14.1843 68.1577
40 1 15 0 191.466 -14.0291 64.154
41 1 17 0 193.693 -16.6229 63.0731
42 1 4 0 192.562 -20.3363 63.59
43 1 7 -0.75 193.811 -23.447 62.8858
44 1 6 0 195.158 -26.8121 61.121
45 1 4 0 191.669 -27.5164 59.4101
46 1 2 0 189.39 -29.9773 61.3341
47 1 11 0 188.545 -33.4133 60.2707
48 1 8 -0.75 185.198 -34.5882 58.2466
49 1 8 -0.75 182.943 -36.9451 60.2952
50 1 20 0 179.562 -35.0092 61.0833
51 1 7 -0.75 179.316 -31.0633 60.6637
52 1 5 0.75 177.963 -29.2938 63.7404
53 1 6 0 175.367 -32.1705 64.3834
54 1 11 0 172.059 -33.2284 63.3101
55 1 2 0 171.218 -32.9146 59.7356
56 1 20 0 168.312 -30.6129 59.1139
57 1 18 0 168.614 -29.6794 55.2075
58 1 8 -0.75 171.366 -27.0498 54.6409
59 1 11 0 172.82 -23.5131 54.6292
60 1 10 0 170.981 -20.573 55.28
61 1 17 0 168.068 -18.8192 57.1596
62 1 12 0 168.264 -15.6958 59.4205
63 1 2 0 168.151 -11.8069 59.5546
64 1 12 0 170.027 -10.5945 62.6805
65 1 6 0 168.133 -7.81491 64.6613
66 1 11 0 166.226 -6.4243 61.5537
67 1 8 -0.75 164.135 -7.02708 58.4609
68 1 18 0 165.745 -7.42707 54.7372
69 1 3 0.75 165.789 -10.2861 52.2882
70 1 12 0 164.695 -13.5933 52.308
71 1 7 -0.75 168.723 -13.5942 52.5177
ITEM: TIMESTEP
1100000
ITEM: NUMBER OF ATOMS
71
ITEM: BOX BOUNDS pp pp pp
-3.0000000000000000e+02 3.0000000000000000e+02
-3.0000000000000000e+02 3.0000000000000000e+02
-3.0000000000000000e+02 3.0000000000000000e+02
ITEM: ATOMS id mol type q xu yu zu
1 1 2 0 195.828 -8.94463 91.5829
2 1 4 0 197.846 -12.4266 90.8875
3 1 12 0 198.585 -13.4458 86.9685
4 1 17 0 201.708 -11.3779 85.1725
5 1 5 0.75 203.39 -8.69378 82.9118
6 1 18 0 200.432 -6.836 80.7554
7 1 11 0 198.287 -4.5757 82.6677
8 1 11 0 194.681 -4.77756 83.5869
9 1 5 0.75 193.544 -8.45913 82.7305
10 1 17 0 191.258 -11.0309 81.5436
11 1 15 0 191.348 -10.8699 77.7593
12 1 11 0 192.822 -12.0974 74.3709
13 1 7 -0.75 192.789 -10.3239 70.7881
14 1 7 -0.75 191.554 -7.08612 68.751
15 1 11 0 191.375 -4.96624 71.8241
16 1 10 0 194.463 -4.84207 73.9579
17 1 2 0 196.033 -1.61475 73.9441
18 1 18 0 197.159 -0.682667 70.3909
19 1 18 0 194.168 1.78467 71.0905
20 1 15 0 194.64 5.47398 70.2472
21 1 17 0 192.419 6.90375 72.7997
22 1 11 0 192.266 7.22822 76.4519
23 1 8 -0.75 188.962 5.8385 78.0759
24 1 2 0 185.536 6.64756 79.4102
25 1 12 0 182.45 8.24747 80.5094
26 1 15 0 178.788 8.0472 81.6446
27 1 7 -0.75 175.578 9.33701 80.4193
28 1 8 -0.75 173.027 6.62806 79.9489
29 1 5 0.75 171.743 3.37357 81.2778
30 1 6 0 168.31 5.32294 82.7012
31 1 11 0 165.352 5.22403 80.382
32 1 11 0 162.276 2.712 80.6238
33 1 7 -0.75 159.038 2.12249 79.0318
34 1 12 0 155.741 0.936164 80.0768