LAMMPS (10 Mar 2021)
Reading data file ...
  orthogonal box = (-300.00000 -300.00000 -300.00000) to (300.00000 300.00000 300.00000)
  1 by 1 by 1 MPI processor grid
  reading atoms ...
  83 atoms
  scanning bonds ...
  1 = max bonds/atom
  reading bonds ...
  82 bonds
Finding 1-2 1-3 1-4 neighbors ...
  special bond factors lj:    0        0        0       
  special bond factors coul:  0        0        0       
     2 = max # of 1-2 neighbors
     2 = max # of 1-3 neighbors
     4 = max # of 1-4 neighbors
     6 = max # of special neighbors
  special bonds CPU = 0.000 seconds
  read_data CPU = 0.002 seconds
Setting atom values ...
  5 settings made for charge
Setting atom values ...
  0 settings made for charge
Setting atom values ...
  11 settings made for charge
Setting atom values ...
  0 settings made for charge
Setting atom values ...
  2 settings made for charge
Setting atom values ...
  0 settings made for charge
Setting atom values ...
  1 settings made for charge
Setting atom values ...
  0 settings made for charge
Setting atom values ...
  0 settings made for charge
Setting atom values ...
  0 settings made for charge
Finding 1-2 1-3 1-4 neighbors ...
  special bond factors lj:    0        1        1       
  special bond factors coul:  0        1        1       
     2 = max # of 1-2 neighbors
     6 = max # of special neighbors
  special bonds CPU = 0.000 seconds
New timer settings: style=normal  mode=nosync  timeout=11:50:00

CITE-CITE-CITE-CITE-CITE-CITE-CITE-CITE-CITE-CITE-CITE-CITE-CITE

Your simulation uses code contributions which should be cited:

- neighbor multi command:

@Article{Intveld08,
 author =  {P.{\,}J.~in{\,}'t~Veld and S.{\,}J.~Plimpton and G.{\,}S.~Grest},
 title =   {Accurate and Efficient Methods for Modeling Colloidal
            Mixtures in an Explicit Solvent using Molecular Dynamics},
 journal = {Comp.~Phys.~Comm.},
 year =    2008,
 volume =  179,
 pages =   {320--329}
}

CITE-CITE-CITE-CITE-CITE-CITE-CITE-CITE-CITE-CITE-CITE-CITE-CITE

Neighbor list info ...
  update every 10 steps, delay 0 steps, check yes
  max neighbors/atom: 2000, page size: 100000
  master list distance cutoff = 38.5
  ghost atom cutoff = 38.5
  binsize = 8.7926654, bins = 69 69 69
  2 neighbor lists, perpetual/occasional/extra = 2 0 0
  (1) pair wf/cut, perpetual
      attributes: half, newton on
      pair build: half/multi/newton
      stencil: half/multi/3d/newton
      bin: standard
  (2) pair coul/debye, perpetual, skip from (1)
      attributes: half, newton on
      pair build: skip
      stencil: none
      bin: none
Per MPI rank memory allocation (min/avg/max) = 10.86 | 10.86 | 10.86 Mbytes
Step PotEng Press KinEng Temp Lx Ly Lz Pzz S/CPU Density TotEng E_vdwl E_coul E_pair E_bond E_angle E_dihed E_impro E_mol E_long E_tail Enthalpy Ecouple Econserve 
       0    3775.4129   -2.1892486            0            0          600          600          600            0            0 6.7742992e-05    3775.4129  -0.24230049   0.16530287 -0.076997616    3775.4899            0            0            0    3775.4899            0            0   -3121.0233            0    3775.4129 
    1000    30.008602 0.0079312622    223.55916    914.62761          600          600          600 0.0015427546    22897.547 6.7742992e-05    253.56776   -4.1910395   0.80858544   -3.3824541    33.391056            0            0            0    33.391056            0            0    278.55233            0    253.56776 
    2000    20.284477 -0.0026791854    85.033091    347.88829          600          600          600 -0.0056029847    33760.778 6.7742992e-05    105.31757   -3.5599921   0.87608144   -2.6839107    22.968388            0            0            0    22.968388            0            0    96.877763            0    105.31757 
    3000    13.182228 0.0013391766    67.004881    274.13109          600          600          600 0.0096594308    37795.716 6.7742992e-05    80.187109   -5.8339361   0.80867125   -5.0252648    18.207493            0            0            0    18.207493            0            0    84.405701            0    80.187109 
    4000    18.076779  0.013017933    70.759138    289.49054          600          600          600  0.019176966    36437.989 6.7742992e-05    88.835917   -7.9792216   0.98441389   -6.9948077    25.071587            0            0            0    25.071587            0            0    129.84421            0    88.835917 
    5000    20.554604 -0.025007241     76.60467    313.40584          600          600          600 -0.019933156    35951.691 6.7742992e-05    97.159274   -7.5057641   0.93328075   -6.5724834    27.127088            0            0            0    27.127088            0            0    18.383003            0    97.159274 
    6000    20.307977 -0.0055518468    64.038267    261.99404          600          600          600 -0.012279223    36555.173 6.7742992e-05    84.346245    -6.686159   0.93274168   -5.7534173    26.061394            0            0            0    26.061394            0            0    66.857158            0    84.346245 
    7000    15.002752 -0.0039398439    79.750979    326.27806          600          600          600 -0.0055815883    36433.874 6.7742992e-05    94.753731   -7.2440268    1.3607389   -5.8832879     20.88604            0            0            0     20.88604            0            0    82.342677            0    94.753731 
    8000    26.598462 0.0033931036    79.524799    325.35271          600          600          600 -0.0012226558     35149.37 6.7742992e-05    106.12326   -3.4589649   0.82900152   -2.6299633    29.228426            0            0            0    29.228426            0            0    116.81201            0    106.12326 
    9000    21.953616 0.0025924445    86.122848    352.34672          600          600          600 0.0069096115    35346.946 6.7742992e-05    108.07646   -4.9953486   0.84847953    -4.146869    26.100485            0            0            0    26.100485            0            0    116.24302            0    108.07646 
   10000    14.066484 -0.0067725892    76.600476    313.38869          600          600          600 -0.0058231286    36695.894 6.7742992e-05    90.666959   -7.5091657   0.91997964   -6.5891861     20.65567            0            0            0     20.65567            0            0    69.332366            0    90.666959 
   11000    18.419528 0.0091457376    85.507616    349.82967          600          600          600 -0.0028546416    36913.891 6.7742992e-05    103.92714    -5.829457    1.1335501    -4.695907    23.115435            0            0            0    23.115435            0            0    132.73748            0    103.92714 
   12000    12.094639  0.021883902     56.30918    230.37272          600          600          600   0.02551472    35029.891 6.7742992e-05     68.40382   -7.7095425   0.95659101   -6.7529514    18.847591            0            0            0    18.847591            0            0    137.34114            0     68.40382 
   13000    18.562207  0.003513116    69.127697    282.81597          600          600          600 -0.0065377092    34350.259 6.7742992e-05    87.689904   -5.0915757    1.0495824   -4.0419933      22.6042            0            0            0      22.6042            0            0    98.756706            0    87.689904 
   14000    17.971091 -0.0074633667    77.935771    318.85166          600          600          600 -0.0014312554    32622.219 6.7742992e-05    95.906862   -4.8229712   0.99159003   -3.8313811    21.802473            0            0            0    21.802473            0            0    72.396224            0    95.906862 
   15000    19.235187 -0.029343241    69.964486    286.23946          600          600          600 -0.031050166    34244.248 6.7742992e-05    89.199673   -7.2305554   0.95373536     -6.27682    25.512007            0            0            0    25.512007            0            0   -3.2355968            0    89.199673 
   16000    20.494079 -0.016256774    68.252408    279.23498          600          600          600 -0.018964513    35059.172 6.7742992e-05    88.746487   -7.3581036   0.99298926   -6.3651144    26.859193            0            0            0    26.859193            0            0    37.535396            0    88.746487 
   17000     21.47436 0.0022266654    69.207312     283.1417          600          600          600   0.01421291    36180.874 6.7742992e-05    90.681672   -5.9979684    1.2779657   -4.7200027    26.194362            0            0            0    26.194362            0            0    97.695976            0    90.681672 
   18000    18.492902 0.0054173875    70.196709    287.18953          600          600          600 0.0081839123    35546.757 6.7742992e-05    88.689612   -8.3481178    1.3098829   -7.0382348    25.531137            0            0            0    25.531137            0            0    105.75513            0    88.689612 
   19000    21.948993 -0.012911527    69.781266    285.48986          600          600          600 -0.033313399    35593.513 6.7742992e-05    91.730258   -7.0327356    1.1784565   -5.8542791    27.803272            0            0            0    27.803272            0            0     51.05716            0    91.730258 
   20000    20.167901 -0.029233398      71.9547    294.38184          600          600          600 -0.0082827051    35733.306 6.7742992e-05    92.122601   -9.2153768     1.032225   -8.1831519    28.351053            0            0            0    28.351053            0            0  0.033351322            0    92.122601 
   21000    23.512872 0.0012399226    76.774658     314.1013          600          600          600 0.0015960552    32958.801 6.7742992e-05    100.28753   -4.9116415    1.6252977   -3.2863438    26.799216            0            0            0    26.799216            0            0    104.19346            0    100.28753 
   22000    17.667488 -0.010611644    65.003932    265.94478          600          600          600 0.0087781674    31672.574 6.7742992e-05     82.67142   -8.8788165    1.1969235   -7.6818929    25.349381            0            0            0    25.349381            0            0    49.243273            0     82.67142 
   23000    18.411287 -0.016035121    67.342015    275.51037          600          600          600 -0.022283226    30872.933 6.7742992e-05    85.753301    -7.415045     1.464046    -5.950999    24.362286            0            0            0    24.362286            0            0    35.240449            0    85.753301 
   24000    18.095926 -0.0094663576    64.622004    264.38223          600          600          600 -0.003460074    30622.063 6.7742992e-05    82.717931   -7.9451065    1.2268382   -6.7182683    24.814195            0            0            0    24.814195            0            0    52.897593            0    82.717931 
   25000    20.703129 0.0086596756    70.082232    286.72118          600          600          600  0.014922833    30648.691 6.7742992e-05    90.785361   -5.0314006    1.2438525   -3.7875481    24.490677            0            0            0    24.490677            0            0    118.06454            0    90.785361 
   26000    18.724922 -0.011807667    73.100041    299.06767          600          600          600 -0.015489304    32812.605 6.7742992e-05    91.824963   -7.5384135    1.4601227   -6.0782908    24.803213            0            0            0    24.803213            0            0    54.629178            0    91.824963 
   27000    18.891725 0.0083577685    78.708059    322.01125          600          600          600 0.00022522091    31469.396 6.7742992e-05    97.599785   -7.1722739     1.672087    -5.500187    24.391912            0            0            0    24.391912            0            0    123.92791            0    97.599785 
   28000    12.804367  0.014567373    83.702358    342.44398          600          600          600  0.011461147    30375.678 6.7742992e-05    96.506725   -8.5172976    1.2913638   -7.2259338    20.030301            0            0            0    20.030301            0            0    142.39597            0    96.506725 
   29000    13.022809 0.0070908796    75.113844    307.30656          600          600          600  0.015690545    30502.698 6.7742992e-05    88.136653   -7.5181218    1.3676702   -6.1504516     19.17326            0            0            0     19.17326            0            0    110.47391            0    88.136653 
   30000    13.840469  0.012850561    62.927146    257.44821          600          600          600  0.013484763     32201.95 6.7742992e-05    76.767616   -6.2295751    1.4173617   -4.8122134    18.652683            0            0            0    18.652683            0            0    117.24866            0    76.767616 
   31000    24.397701 -0.007645999    76.565591    313.24597          600          600          600  0.010345177    31536.832 6.7742992e-05    100.96329   -5.3376312    1.3455194   -3.9921118    28.389813            0            0            0    28.389813            0            0    76.877337            0    100.96329 
   32000    20.140476 -0.0068276309    74.218007     303.6415          600          600          600 -0.0083464935    32239.325 6.7742992e-05    94.358483   -3.7572509    1.3320386   -2.4252122    22.565689            0            0            0    22.565689            0            0    72.850501            0    94.358483 
   33000    23.106098  0.011282364    75.708331    309.73874          600          600          600  0.035954182     31461.37 6.7742992e-05    98.814429   -1.6653709     1.662053 -0.0033178355    23.109416            0            0            0    23.109416            0            0    134.35544            0    98.814429 
   34000    15.617339 -0.0066205995    76.636785    313.53724          600          600          600 0.0029796862     31411.89 6.7742992e-05    92.254124    -10.37788    1.2015339   -9.1763458    24.793685            0            0            0    24.793685            0            0    71.398319            0    92.254124 
   35000    11.814824  0.026933476    72.155991    295.20536          600          600          600  0.023445518    30524.231 6.7742992e-05    83.970815   -8.7837444    1.2894088   -7.4943356    19.309159            0            0            0    19.309159            0            0    168.81499            0    83.970815 
   36000      11.3749 0.0017745051    69.916975    286.04508          600          600          600 0.0065512266    31906.038 6.7742992e-05    81.291875   -8.1654753    1.2589011   -6.9065742    18.281475            0            0            0    18.281475            0            0    86.881812            0    81.291875 
   37000    28.483897 -0.014542287     68.21481    279.08116          600          600          600 -0.024842054     31588.61 6.7742992e-05    96.698707    -4.698215    1.0000911   -3.6981239    32.182021            0            0            0    32.182021            0            0    50.888488            0    96.698707 
   38000    25.473262 0.0088918322    76.990955    314.98622          600          600          600   0.02459803    30250.802 6.7742992e-05    102.46422   -8.6100695    1.6380415   -6.9720279     32.44529            0            0            0     32.44529            0            0    130.47472            0    102.46422 
   39000    14.360506 -0.0031448668     76.02155    311.02018          600          600          600 -0.0065663778    29912.309 6.7742992e-05    90.382056   -11.118297    1.6643265   -9.4539708    23.814477            0            0            0    23.814477            0            0    80.475291            0    90.382056 
   40000    11.862752  0.026989496    58.172085    237.99425          600          600          600    0.0170796    31815.764 6.7742992e-05    70.034837   -10.589375    1.2900026    -9.299372    21.162124            0            0            0    21.162124            0            0    155.05549            0    70.034837 
   41000    21.980283 0.0093704396    65.975088    269.91799          600          600          600 -0.0069507702    32313.092 6.7742992e-05    87.955371   -6.1759725    1.1855719   -4.9904005    26.970684            0            0            0    26.970684            0            0    117.47355            0    87.955371 
   42000    9.9806572 -0.0075221893    73.922533    302.43266          600          600          600  -0.01113767    31946.866 6.7742992e-05     83.90319   -9.4994032    1.1082912    -8.391112    18.371769            0            0            0    18.371769            0            0    60.207253            0     83.90319 
   43000    16.127972 0.0059118403    62.263308    254.73231          600          600          600 0.0063719778     32530.88 6.7742992e-05     78.39128   -6.6475426    1.0885021   -5.5590405    21.687012            0            0            0    21.687012            0            0    97.014396            0     78.39128 
   44000    9.3667193 0.0019243158    72.077926    294.88598          600          600          600  0.005378188    31766.367 6.7742992e-05    81.444645   -10.991813    1.2337698   -9.7580431    19.124762            0            0            0    19.124762            0            0    87.506506            0    81.444645 
   45000    17.580703 -0.00045815143    66.846734    273.48407          600          600          600 -0.0011151571    29304.771 6.7742992e-05    84.427437   -8.2856356     1.207955   -7.0776806    24.658384            0            0            0    24.658384            0            0    82.984197            0    84.427437 
   46000    12.995499 -0.0054351229    70.633496    288.97651          600          600          600 -0.017863845    29662.268 6.7742992e-05    83.628995   -13.896797    1.9112287   -11.985569    24.981068            0            0            0    24.981068            0            0    66.507605            0    83.628995 
   47000    12.001916   -0.0168323    72.270646    295.67444          600          600          600 -0.022265443    30719.175 6.7742992e-05    84.272561   -12.186934    1.5881722   -10.598762    22.600677            0            0            0    22.600677            0            0    31.248487            0    84.272561 
   48000    14.851439 0.0046817481    69.006931    282.32189          600          600          600  0.020600683     28051.23 6.7742992e-05     83.85837   -10.165727     1.568851   -8.5968758    23.448315            0            0            0    23.448315            0            0    98.606525            0     83.85837 
   49000    18.309885 0.0095101905    79.335207    324.57705          600          600          600  0.017678235     24775.12 6.7742992e-05    97.645092   -12.455275    1.8583302   -10.596945     28.90683            0            0            0     28.90683            0            0    127.60351            0    97.645092 
   50000    15.852946 0.0076081953    70.060277    286.63135          600          600          600  0.021887928    22612.632 6.7742992e-05    85.913224   -13.640357    2.0325048   -11.607852    27.460799            0            0            0    27.460799            0            0    109.88009            0    85.913224 
   51000    8.2037438 -0.010613863    77.496699    317.05532          600          600          600 -0.0068059543    24451.736 6.7742992e-05    85.700443   -10.243599    1.0289471   -9.2146515    17.418395            0            0            0    17.418395            0            0    52.265306            0    85.700443 
   52000    16.554881 0.0063551618    77.057094    315.25681          600          600          600 0.0092770314    25209.184 6.7742992e-05    93.611975   -10.868588    1.6269121   -9.2416756    25.796557            0            0            0    25.796557            0            0    113.63161            0    93.611975 
   53000    13.804974  0.019410453    82.941237    339.33007          600          600          600  0.015320384    25520.715 6.7742992e-05     96.74621   -10.323134    1.5202157   -8.8029179    22.607892            0            0            0    22.607892            0            0    157.89183            0     96.74621 
   54000    25.160446 0.0090431746    79.060443    323.45293          600          600          600 -0.0025094688    25119.955 6.7742992e-05    104.22089   -8.8189572    1.5363595   -7.2825977    32.443044            0            0            0    32.443044            0            0    132.70814            0    104.22089 
   55000    11.704919 -0.0012797243    75.841791    310.28475          600          600          600  0.019161404    29364.268 6.7742992e-05     87.54671   -10.375339    1.4321313   -8.9432078    20.648127            0            0            0    20.648127            0            0    83.515401            0     87.54671 
   56000     8.320473 -0.010022092    76.007223    310.96156          600          600          600 -0.021064679    31560.562 6.7742992e-05    84.327696   -10.374214    1.3252362   -9.0489782    17.369451            0            0            0    17.369451            0            0    52.756718            0    84.327696 
   57000    24.884388 0.0097984894    74.989054    306.79602          600          600          600  0.023494839     30498.04 6.7742992e-05    99.873442   -9.4070638     1.314269   -8.0927948    32.977183            0            0            0    32.977183            0            0    130.74004            0    99.873442 
   58000    27.866132 -0.010762138    78.471823    321.04476          600          600          600 0.0048084275     29769.85 6.7742992e-05    106.33795   -10.011053    1.3508615   -8.6601915    36.526324            0            0            0    36.526324            0            0     72.43573            0    106.33795 
   59000    14.957481  0.006669046    75.395593    308.45925          600          600          600 0.0010642157    27330.688 6.7742992e-05    90.353074   -10.997547    1.2478666   -9.7496805    24.707162            0            0            0    24.707162            0            0    111.36149            0    90.353074 
   60000    14.823794 -0.0087188397    79.194309     324.0006          600          600          600 -0.021399656    28825.049 6.7742992e-05    94.018103   -8.9709539     1.342175   -7.6287789    22.452573            0            0            0    22.452573            0            0    66.552551            0    94.018103 
   61000    23.791922 -1.6877405e-05    86.806349    355.14306          600          600          600 -0.0052734083    27684.809 6.7742992e-05    110.59827   -9.4692432    1.2762339   -8.1930093    31.984931            0            0            0    31.984931            0            0     110.5451            0    110.59827 
   62000     22.14528 -0.017606596    63.979976    261.75556          600          600          600 -0.027653401    25343.992 6.7742992e-05    86.125256   -9.1509848    1.7676131   -7.3833717    29.528652            0            0            0    29.528652            0            0    30.662042            0    86.125256 
   63000    13.692019 0.0089358603    68.120662    278.69598          600          600          600 0.0056287659    25179.371 6.7742992e-05    81.812681   -9.3607896    1.8775515   -7.4832381    21.175257            0            0            0    21.175257            0            0    109.96188            0    81.812681 
   64000    11.423707 -0.0065211364    63.538437    259.94913          600          600          600 -0.0069133392     25276.18 6.7742992e-05    74.962144   -13.934458    2.0706377    -11.86382    23.287527            0            0            0    23.287527            0            0    54.419661            0    74.962144 
   65000    12.300634 -0.017911601    79.038921    323.36488          600          600          600 -0.025150741    24482.136 6.7742992e-05    91.339555   -12.422384    1.5680552   -10.854329    23.154963            0            0            0    23.154963            0            0    34.915532            0    91.339555 
   66000    14.085312 -0.0097959681    90.453749    370.06535          600          600          600 0.0051286097    25740.138 6.7742992e-05    104.53906   -10.010303    1.3576525   -8.6526502    22.737962            0            0            0    22.737962            0            0    73.680406            0    104.53906 
   67000    12.027042 0.0039885883    74.534373    304.93582          600          600          600 0.0061456381    26668.769 6.7742992e-05    86.561415   -9.4526994    1.7629409   -7.6897585    19.716801            0            0            0    19.716801            0            0    99.126021            0    86.561415 
   68000     11.67346 -0.0017509836    67.678194    276.88575          600          600          600 -0.0090157865    23236.369 6.7742992e-05    79.351655   -16.198857    2.1992813   -13.999575    25.673036            0            0            0    25.673036            0            0    73.835814            0    79.351655 
   69000    12.481869 0.0070457763    76.176771    311.65522          600          600          600 0.0024464146    23002.276 6.7742992e-05     88.65864   -13.947068     1.759885   -12.187183    24.669051            0            0            0    24.669051            0            0    110.85381            0     88.65864 
   70000    28.790784 -0.022552063    66.324283    271.34661          600          600          600 -0.015165542    25154.605 6.7742992e-05    95.115067   -6.2552032    1.4833085   -4.7718947    33.562679            0            0            0    33.562679            0            0    24.072945            0    95.115067 
   71000    12.562474 0.0090523247    82.033718    335.61722          600          600          600  -0.01375696    27880.801 6.7742992e-05    94.596191   -9.5238475    1.2607573   -8.2630902    20.825564            0            0            0    20.825564            0            0    123.11227            0    94.596191 
   72000    18.552222 -0.0032639704    73.710708    301.56604          600          600          600 -0.019034918    30399.675 6.7742992e-05     92.26293   -7.8145261    1.2590966   -6.5554296    25.107651            0            0            0    25.107651            0            0    81.980971            0     92.26293 
   73000    19.597216 0.0052857281    75.477165    308.79298          600          600          600 0.0059157803    32918.706 6.7742992e-05    95.074381   -5.6903646    1.0250717   -4.6652929    24.262509            0            0            0    24.262509            0            0    111.72516            0    95.074381 
   74000    21.871986 -0.023292996    73.713157    301.57606          600          600          600 -0.0046906542    33781.443 6.7742992e-05    95.585143   -6.9179871   0.92184111    -5.996146    27.868132            0            0            0    27.868132            0            0    22.208982            0    95.585143 
   75000    21.437665   -0.0130435     85.43107    349.51651          600          600          600   -0.0162854    33652.968 6.7742992e-05    106.86874   -6.4863572    1.0964583   -5.3898989    26.827564            0            0            0    26.827564            0            0    65.779905            0    106.86874 
   76000    20.847135 0.0024124635    68.326051    279.53627          600          600          600  0.010653181    33425.809 6.7742992e-05    89.173186   -6.2193592    1.1281398   -5.0912195    25.938355            0            0            0    25.938355            0            0     96.77278            0    89.173186 
   77000    18.473679 -0.0089698835     63.78851    260.97223          600          600          600 -0.015648139    33881.319 6.7742992e-05    82.262189   -6.0224977    0.8917555   -5.1307422    23.604421            0            0            0    23.604421            0            0    54.005814            0    82.262189 
   78000    27.294932 -0.022659861    70.039585     286.5467          600          600          600 -0.028484672     35349.33 6.7742992e-05    97.334517   -8.6267955    1.0434827   -7.5833129    34.878245            0            0            0    34.878245            0            0    25.952818            0    97.334517 
   79000    17.094204  0.013168656    70.215359    287.26583          600          600          600 -0.006998556    33411.165 6.7742992e-05    87.309563    -6.167918      1.18886    -4.979058    22.073262            0            0            0    22.073262            0            0    128.79265            0    87.309563 
   80000    16.802538 -0.024454725    79.422346    324.93355          600          600          600  -0.01180799    32161.702 6.7742992e-05    96.224883   -10.776277    1.1344003   -9.6418766    26.444414            0            0            0    26.444414            0            0    19.189114            0    96.224883 
   81000    12.591437 -0.0031006962    81.574131    333.73696          600          600          600 -0.0075672407    30790.888 6.7742992e-05    94.165568   -12.299317    1.1530993   -11.146218    23.737655            0            0            0    23.737655            0            0    84.397945            0    94.165568 
   82000    10.740139  0.012195295    75.948261    310.72034          600          600          600 0.00079812144    29452.521 6.7742992e-05      86.6884   -9.8884603    1.2535319   -8.6349284    19.375067            0            0            0    19.375067            0            0    125.10527            0      86.6884 
   83000    19.601213 0.0030536954    81.736419    334.40091          600          600          600 0.0090528429    31405.069 6.7742992e-05    101.33763   -8.4817754    1.1249064    -7.356869    26.958082            0            0            0    26.958082            0            0     110.9572            0    101.33763 
   84000     24.28295  0.004966928    82.385421    337.05612          600          600          600 -0.0011990112    30437.841 6.7742992e-05    106.66837   -5.9043799    1.1299949    -4.774385    29.057335            0            0            0    29.057335            0            0    122.31488            0    106.66837 
   85000    19.585625 -5.8091821e-05    65.911672    269.65854          600          600          600  0.016436052    30148.604 6.7742992e-05    85.497297   -6.4645537    1.1567802   -5.3077735    24.893398            0            0            0    24.893398            0            0      85.3143            0    85.497297 
   86000    14.899959 -0.0039801141    61.056982    249.79698          600          600          600  0.001728761    29601.558 6.7742992e-05    75.956941   -10.066636    1.2914556   -8.7751808     23.67514            0            0            0     23.67514            0            0    63.419031            0    75.956941 
   87000    11.723197  0.002970917    65.870574     269.4904          600          600          600 -0.0055471895    30029.885 6.7742992e-05    77.593771   -10.643329    1.4037942   -9.2395346    20.962731            0            0            0    20.962731            0            0    86.952571            0    77.593771 
   88000    22.135109 -0.025716492    85.382819     349.3191          600          600          600 -0.034322523    29963.595 6.7742992e-05    107.51793   -8.2013098   0.95646334   -7.2448465    29.379955            0            0            0    29.379955            0            0    26.507419            0    107.51793 
   89000    17.390436 0.0003405421     89.34829    365.54268          600          600          600 -0.005596444    31371.479 6.7742992e-05    106.73873   -7.7563079    1.5194653   -6.2368426    23.627279            0            0            0    23.627279            0            0    107.81148            0    106.73873 
   90000    15.203786 -0.0030916073    75.873775     310.4156          600          600          600 0.0037213494    31272.537 6.7742992e-05    91.077561   -7.3920045    0.9404143   -6.4515902    21.655376            0            0            0    21.655376            0            0     81.33857            0    91.077561 
   91000    14.926029 0.0038957828    62.966901    257.61086          600          600          600  0.012399561    30971.187 6.7742992e-05     77.89293   -6.5698063      1.36522   -5.2045863    20.130615            0            0            0    20.130615            0            0    90.165185            0     77.89293 
   92000    25.858771 -0.013691336    67.890915    277.75604          600          600          600 -0.025656255    34010.168 6.7742992e-05    93.749686   -7.4204213     1.138893   -6.2815282      32.1403            0            0            0      32.1403            0            0    50.620082            0    93.749686 
   93000    20.291826 0.00072045436    73.121635    299.15601          600          600          600 -0.0028535156    32770.816 6.7742992e-05     93.41346   -8.6639246    1.0408049   -7.6231197    27.914945            0            0            0    27.914945            0            0    95.682991            0     93.41346 
   94000    20.422215 -0.023940509    83.092237    339.94785          600          600          600 0.0060245235    32719.177 6.7742992e-05    103.51445   -7.3380035   0.91181657   -6.4261869    26.848401            0            0            0    26.848401            0            0    28.098533            0    103.51445 
   95000    14.143361 -0.0091898228    74.213685    303.62382          600          600          600  -0.01359785    30754.088 6.7742992e-05    88.357046   -10.492131    1.3702786   -9.1218525    23.265213            0            0            0    23.265213            0            0    59.407832            0    88.357046 
   96000    17.880712 0.0015438448    72.276196    295.69714          600          600          600 -0.019876106    29420.499 6.7742992e-05    90.156908   -9.2979124    1.4636218   -7.8342907    25.715003            0            0            0    25.715003            0            0    95.020233            0    90.156908 
   97000    18.800336  0.023512467    73.257254    299.71086          600          600          600  0.025014576    28752.924 6.7742992e-05    92.057591   -8.3047945    1.1413327   -7.1634618    25.963798            0            0            0    25.963798            0            0    166.12512            0    92.057591 
   98000    20.937026 -0.010689647    77.530247    317.19257          600          600          600 -0.032277965    28774.622 6.7742992e-05    98.467273   -8.6579936    1.0071542   -7.6508395    28.587866            0            0            0    28.587866            0            0    64.793406            0    98.467273 
   99000    16.637352 -0.0028065782    79.417649    324.91433          600          600          600  0.011064883    27837.315 6.7742992e-05    96.055001   -10.959056   0.98112335    -9.977933    26.615285            0            0            0    26.615285            0            0    87.213891            0    96.055001 
  100000     10.67745 -0.010627085    77.388819    316.61396          600          600          600 -0.0081673265    28511.927 6.7742992e-05    88.066269   -12.050263    1.3510749   -10.699188    21.376638            0            0            0    21.376638            0            0    54.589481            0    88.066269 
  101000    11.390692 -0.0028450008    78.043812    319.29368          600          600          600 -0.0093775465    28703.338 6.7742992e-05    89.434504   -9.0453659    1.4126123   -7.6327536    19.023446            0            0            0    19.023446            0            0    80.472358            0    89.434504 
  102000    20.562607 -0.00021673804    73.394096    300.27071          600          600          600  0.011711132    27954.945 6.7742992e-05    93.956703   -7.1460854    1.5654153   -5.5806701    26.143277            0            0            0    26.143277            0            0    93.273948            0    93.956703 
  103000     17.02383 -0.011393029    90.487141    370.20196          600          600          600 0.0034936115    23998.581 6.7742992e-05    107.51097   -12.706153    1.4564482   -11.249705    28.273535            0            0            0    28.273535            0            0    71.621354            0    107.51097 
  104000    23.098368 -0.032997651    61.214724    250.44233          600          600          600 -0.026752668    25227.075 6.7742992e-05    84.313092    -9.000643    1.3910811   -7.6095619     30.70793            0            0            0     30.70793            0            0   -19.634078            0    84.313092 
  105000    20.206298 0.0033099955    71.693259    293.31223          600          600          600 0.0036870021    28700.981 6.7742992e-05    91.899557   -12.465878    1.0447775   -11.421101    31.627399            0            0            0    31.627399            0            0     102.3265            0    91.899557 
  106000    18.698388 0.0048221615    89.629004    366.69114          600          600          600  0.014545532    29486.478 6.7742992e-05    108.32739   -7.5254683    1.0381736   -6.4872947    25.185682            0            0            0    25.185682            0            0    123.51787            0    108.32739 
  107000    18.479832 -0.012557422    81.535056    333.57709          600          600          600 -0.026286501    28840.707 6.7742992e-05    100.01489   -9.7310083    1.1975424   -8.5334659    27.013298            0            0            0    27.013298            0            0    60.457271            0    100.01489 
  108000    27.941013 -0.013898165    66.147964    270.62526          600          600          600 -0.020057574     27592.29 6.7742992e-05    94.088976   -9.7416136     1.859618   -7.8819955    35.823008            0            0            0    35.823008            0            0    50.307834            0    94.088976 
  109000    11.677004  0.013198884    70.591587    288.80506          600          600          600   0.01057153    27545.176 6.7742992e-05    82.268591    -10.05218    1.2002003   -8.8519799    20.528984            0            0            0    20.528984            0            0     123.8469            0    82.268591 
  110000    15.535074 -0.00072457369    77.334357    316.39115          600          600          600 -0.010027974    25806.496 6.7742992e-05    92.869431   -9.4728222    1.3422944   -8.1305277    23.665602            0            0            0    23.665602            0            0    90.586924            0    92.869431 
  111000     20.58031 -0.012613985    68.562673    280.50434          600          600          600 -0.0056860983    24839.238 6.7742992e-05    89.142984   -7.0995882    1.7427421   -5.3568461    25.937156            0            0            0    25.937156            0            0    49.407183            0    89.142984 
  112000    12.706554 -0.015726308    62.389842    255.24999          600          600          600 -0.017714187     25336.95 6.7742992e-05    75.096396   -14.085164     1.691362   -12.393802    25.100356            0            0            0    25.100356            0            0    25.556349            0    75.096396 
  113000    14.025391 -0.0056529409    65.264687    267.01159          600          600          600 -0.0031609477    22760.865 6.7742992e-05    79.290078   -9.7350023    1.6911422   -8.0438602    22.069251            0            0            0    22.069251            0            0    61.482532            0    79.290078 
  114000    21.731744  0.012136522    75.585153    309.23479          600          600          600  -0.01215323    24650.626 6.7742992e-05    97.316897   -7.6126058    1.2975122   -6.3150935    28.046837            0            0            0    28.046837            0            0    135.54862            0    97.316897 
  115000    16.419918 0.0087261985    80.524285    329.44182          600          600          600 -0.0094158239    27288.013 6.7742992e-05    96.944203    -8.477574    1.1693899   -7.3081841    23.728102            0            0            0    23.728102            0            0    124.43294            0    96.944203 
  116000    21.120899 -0.021049753    67.805443    277.40635          600          600          600 -0.053426932    29982.444 6.7742992e-05    88.926341   -10.153057    1.2518522   -8.9012052    30.022104            0            0            0    30.022104            0            0    22.616704            0    88.926341 
  117000    16.571984 -0.034182241    64.598307    264.28528          600          600          600 -0.025672183    28730.668 6.7742992e-05    81.170291   -11.096568    1.4453465   -9.6512218    26.223206            0            0            0    26.223206            0            0     -26.5085            0    81.170291 
  118000    16.694733 -0.011894115    66.591695    272.44065          600          600          600 -0.022499264     27895.45 6.7742992e-05    83.286428   -7.2772093    1.4173402   -5.8598691    22.554602            0            0            0    22.554602            0            0     45.81832            0    83.286428 
  119000    18.062262 0.0067996973    72.933865    298.38781          600          600          600  0.038323946    29467.212 6.7742992e-05    90.996127   -8.8509904    1.4000961   -7.4508943    25.513156            0            0            0    25.513156            0            0    112.41611            0    90.996127 
  120000    17.029844 -0.011864156    69.363681    283.78144          600          600          600 -0.0040491804    31340.302 6.7742992e-05    86.393525   -8.0899346    1.2881867    -6.801748    23.831592            0            0            0    23.831592            0            0     49.01979            0    86.393525 
  121000     23.30197 -0.0039471659    82.640908    338.10137          600          600          600 -0.00026607643    33731.183 6.7742992e-05    105.94288   -5.7644376     1.005034   -4.7594036    28.061374            0            0            0    28.061374            0            0    93.508759            0    105.94288 
  122000    17.151206 -0.015960697    77.193847    315.81629          600          600          600 -0.023805591    32025.655 6.7742992e-05    94.345053   -9.0039267    1.3720501   -7.6318766    24.783083            0            0            0    24.783083            0            0    44.066648            0    94.345053 
  123000    13.902492 -0.013418771    70.040516    286.55051          600          600          600 0.0010133791    29497.676 6.7742992e-05    83.943008   -12.323757    1.4153072    -10.90845    24.810942            0            0            0    24.810942            0            0    41.672021            0    83.943008 
  124000    22.439051  0.015287407    68.209805    279.06068          600          600          600  0.015736562    30352.597 6.7742992e-05    90.648855   -6.5741578    1.1927184   -5.3814394     27.82049            0            0            0     27.82049            0            0     138.8063            0    90.648855 
  125000    12.345194 -0.0013103291    63.131741    258.28525          600          600          600 -0.0064490703    29558.793 6.7742992e-05    75.476934     -10.0858    1.2276529   -8.8581469    21.203341            0            0            0    21.203341            0            0    71.349216            0    75.476934 
  126000    16.909231 -0.016874133    72.677486    297.33891          600          600          600 -0.021646927    28389.766 6.7742992e-05    89.586717   -12.672251      1.28235   -11.389901    28.299132            0            0            0    28.299132            0            0    36.430863            0    89.586717 
  127000    11.067612  0.018104421     87.71942    358.87863          600          600          600 0.0078902774    27308.267 6.7742992e-05    98.787032    -15.15854    1.4907128   -13.667827    24.735439            0            0            0    24.735439            0            0    155.81846            0    98.787032 
  128000    10.429191  0.033356216    78.425673    320.85595          600          600          600  0.032271254    27787.705 6.7742992e-05    88.854863   -12.291068    1.3467157   -10.944352    21.373543            0            0            0    21.373543            0            0    193.93156            0    88.854863 
  129000    10.646819 -0.016585442    85.661215    350.45808          600          600          600 -0.020032459    28798.528 6.7742992e-05    96.308035   -13.240512    1.7039705   -11.536542    22.183361            0            0            0    22.183361            0            0    44.061596            0    96.308035 
  130000    16.388352 -0.025365665    77.824627    318.39695          600          600          600 -0.032727415    28355.219 6.7742992e-05    94.212979   -10.955117    1.2987005    -9.656416    26.044768            0            0            0    26.044768            0            0    14.307622            0    94.212979 
  131000    14.113706 -0.0096596238    59.248203    242.39688          600          600          600  0.018362765    29569.003 6.7742992e-05    73.361908   -10.262366    1.3886516   -8.8737146     22.98742            0            0            0     22.98742            0            0    42.932756            0    73.361908 
  132000    21.046403 0.0059458516    58.229418    238.22882          600          600          600 -0.004327313    31642.706 6.7742992e-05    79.275821   -8.3488163    1.3528243   -6.9959919    28.042395            0            0            0    28.042395            0            0    98.006077            0    79.275821 
  133000    16.043392 -0.010978434    83.890662    343.21437          600          600          600 -0.00074391917    30613.793 6.7742992e-05    99.934054    -10.43448    1.2323837   -9.2020965    25.245489            0            0            0    25.245489            0            0    65.350468            0    99.934054 
  134000     10.23165 -0.0085725403    84.760037    346.77117          600          600          600 -0.0087959769    29724.701 6.7742992e-05    94.991687   -13.671867    1.4335451   -12.238322    22.469972            0            0            0    22.469972            0            0    67.986998            0    94.991687 
  135000     15.69921 -0.0025684346    71.654171    293.15231          600          600          600 -0.0077838859    28819.305 6.7742992e-05    87.353381   -10.749342    1.2462789   -9.5030632    25.202273            0            0            0    25.202273            0            0    79.262456            0    87.353381 
  136000    14.450563  0.015223745    71.697562    293.32983          600          600          600 0.0029323305    29236.341 6.7742992e-05    86.148126   -11.078564    1.3438209   -9.7347432    24.185307            0            0            0    24.185307            0            0    134.10503            0    86.148126 
  137000    16.848726 0.0033496125    79.862472     326.7342          600          600          600  0.016226776    30871.796 6.7742992e-05    96.711199   -10.741043    1.2914655   -9.4495772    26.298304            0            0            0    26.298304            0            0    107.26294            0    96.711199 
  138000    16.113972 0.0074757873    77.454087    316.88099          600          600          600 -0.00043097647    30549.353 6.7742992e-05    93.568059   -6.0062246    1.2615056   -4.7447189    20.858691            0            0            0    20.858691            0            0    117.11782            0    93.568059 
  139000    12.281615 -0.017813117    67.289525    275.29563          600          600          600 -0.0086000061    28899.926 6.7742992e-05     79.57114   -12.069612    1.4549008   -10.614711    22.896326            0            0            0    22.896326            0            0    23.457354            0     79.57114 
  140000    11.089471 0.00083645288    61.149565    250.17575          600          600          600 -0.0051406359    29434.332 6.7742992e-05    72.239035   -12.501756    1.5510566   -10.950699     22.04017            0            0            0     22.04017            0            0    74.873978            0    72.239035 
  141000    6.4500927  0.004982575    76.923491    314.71021          600          600          600 0.00016469268    28565.715 6.7742992e-05    83.373584   -12.023221    1.7129053   -10.310315    16.760408            0            0            0    16.760408            0            0    99.069385            0    83.373584 
  142000    19.260039 0.0012183265    66.234957    270.98117          600          600          600 0.0053688061    29977.943 6.7742992e-05    85.494997   -7.7533005    1.2891691   -6.4641314    25.724171            0            0            0    25.724171            0            0    89.332894            0    85.494997 
  143000    9.2459798 -0.007518621    79.505748    325.27476          600          600          600 -0.0034129272    30247.966 6.7742992e-05    88.751727   -13.078114    1.4781716   -11.599942    20.845922            0            0            0    20.845922            0            0     65.06703            0    88.751727 
  144000    20.549153  0.012382909    77.875925    318.60682          600          600          600 -0.011205997    29437.637 6.7742992e-05    98.425078   -10.616457    1.5396798   -9.0767776    29.625931            0            0            0    29.625931            0            0    137.43296            0    98.425078 
  145000    15.416615 -0.0089317338    80.657975    329.98877          600          600          600 0.0040871951    29141.075 6.7742992e-05     96.07459   -8.8303332    1.0445669   -7.7857663    23.202382            0            0            0    23.202382            0            0    67.938392            0     96.07459 
  146000    22.033244  0.020640483    66.382342    271.58415          600          600          600  0.011175544    30401.438 6.7742992e-05    88.415585   -8.0745429    1.1062931   -6.9682498    29.001493            0            0            0    29.001493            0            0    153.43596            0    88.415585 
  147000    16.392698 0.0038590207    66.153728    270.64884          600          600          600  0.029134751    31549.879 6.7742992e-05    82.546426   -7.8612319    1.1771269    -6.684105    23.076803            0            0            0    23.076803            0            0    94.702876            0    82.546426 
  148000    19.561613 -0.011293137    68.598247    280.64988          600          600          600 -0.0082610487    30521.343 6.7742992e-05     88.15986   -7.1401603    1.1769543    -5.963206    25.524819            0            0            0    25.524819            0            0    52.584915            0     88.15986 
  149000    13.056166 0.0063498345    74.270658    303.85691          600          600          600 0.0097730973    31834.841 6.7742992e-05    87.326824   -9.4586527    1.2287948   -8.2298579    21.286024            0            0            0    21.286024            0            0    107.32968            0    87.326824 
  150000    17.141731  0.015777815    66.271651    271.13129          600          600          600 0.0087813285    33472.758 6.7742992e-05    83.413382   -7.5612842    1.1891476   -6.3721366    23.513868            0            0            0    23.513868            0            0    133.11568            0    83.413382 
  151000    11.150557  0.014152556    78.778744    322.30044          600          600          600 0.0092563296    32050.372 6.7742992e-05      89.9293   -14.797893    1.0651536   -13.732739    24.883296            0            0            0    24.883296            0            0    134.51181            0      89.9293 
  152000    9.6119033 -0.010410271    67.161998    274.77388          600          600          600 -0.011617552    30878.387 6.7742992e-05    76.773901   -10.072588    1.0372881   -9.0353001    18.647203            0            0            0    18.647203            0            0    43.980107            0    76.773901 
  153000    16.192144 -0.001957341    65.771932    269.08683          600          600          600 -0.011676478    33506.451 6.7742992e-05    81.964076   -9.1041146    1.2230951   -7.8810194    24.073163            0            0            0    24.073163            0            0    75.798181            0    81.964076 
  154000    11.332793   0.01419835    64.440789    263.64084          600          600          600  0.012751761    32978.236 6.7742992e-05    75.773582   -6.9307252    1.4564891   -5.4742361     16.80703            0            0            0     16.80703            0            0    120.50035            0    75.773582 
  155000    18.540791 -0.00058598593    76.415172    312.63057          600          600          600 -0.020085062    31347.095 6.7742992e-05    94.955963   -5.4009076   0.81865032   -4.5822572    23.123048            0            0            0    23.123048            0            0    93.110026            0    94.955963 
  156000    17.740753 -0.0092058192     72.91955    298.32924          600          600          600 -0.011734112    31151.759 6.7742992e-05    90.660303   -9.2673743    1.5352221   -7.7321522    25.472905            0            0            0    25.472905            0            0    61.660698            0    90.660303 
  157000    15.683706  0.032886384    80.577707    329.66038          600          600          600  0.016364541     29139.05 6.7742992e-05    96.261413   -10.540228    1.5497599   -8.9904682    24.674174            0            0            0    24.674174            0            0    199.85807            0    96.261413 
  158000    17.141266 -0.0047630803    78.455647    320.97858          600          600          600  0.017593847    28542.194 6.7742992e-05    95.596913   -11.177332    1.5750376    -9.602294     26.74356            0            0            0     26.74356            0            0    80.592551            0    95.596913 
  159000    20.823962  0.022669811     72.03275    294.70116          600          600          600  0.028813363    30857.488 6.7742992e-05    92.856712   -8.2270495    1.3980605    -6.828989    27.652951            0            0            0    27.652951            0            0    164.26976            0    92.856712 
  160000    11.431342  0.012101442     77.56328    317.32772          600          600          600   0.03006911    31507.929 6.7742992e-05    88.994622   -9.2194555    1.1346929   -8.0847626    19.516105            0            0            0    19.516105            0            0    127.11584            0    88.994622 
  161000    12.553647 -0.013813308    70.480883    288.35214          600          600          600 0.0031239093    28555.214 6.7742992e-05     83.03453   -11.252896    1.8247053   -9.4281908    21.981838            0            0            0    21.981838            0            0    39.520699            0     83.03453 
  162000    10.057324 -0.014380675    71.062979    290.73362          600          600          600 -0.0084526802    26148.538 6.7742992e-05    81.120303   -13.790552    1.5416998   -12.248852    22.306176            0            0            0    22.306176            0            0    35.819188            0    81.120303 
  163000    9.2430325  0.010126113    71.145444      291.071          600          600          600 0.00029625642    24602.044 6.7742992e-05    80.388476   -15.039608    1.8084144   -13.231194    22.474226            0            0            0    22.474226            0            0    112.28714            0    80.388476 
  164000    16.814183 -0.011734383     73.18634    299.42074          600          600          600 -0.0048778668    25149.628 6.7742992e-05    90.000524   -12.582416     2.169333   -10.413083    27.227266            0            0            0    27.227266            0            0    53.035592            0    90.000524 
  165000    19.230046 -0.0051495395    65.579915    268.30125          600          600          600 0.0015469713    26732.339 6.7742992e-05    84.809961   -10.540249     1.888876    -8.651373    27.881419            0            0            0    27.881419            0            0    68.588199            0    84.809961 
  166000    15.763823 -0.022268703    70.584349    288.77544          600          600          600 -0.015993079    24865.007 6.7742992e-05    86.348172   -12.059426     1.352238   -10.707188    26.471011            0            0            0    26.471011            0            0    16.198673            0    86.348172 
  167000    22.449341 -0.0049712026    78.828597     322.5044          600          600          600 -0.024283401    25145.858 6.7742992e-05    101.27794   -9.7547859    1.3436773   -8.4111086    30.860449            0            0            0    30.860449            0            0    85.617961            0    101.27794 
  168000      18.9155 -0.0053552088    79.271972    324.31834          600          600          600 -0.0077489107    27324.634 6.7742992e-05    98.187473   -8.7812617    1.0638957    -7.717366    26.632866            0            0            0    26.632866            0            0    81.317824            0    98.187473 
  169000    20.402173  0.004338336    81.133398    331.93383          600          600          600 0.0089346765    29675.489 6.7742992e-05    101.53557   -6.6608574    1.1594745   -5.5013829    25.903556            0            0            0    25.903556            0            0    115.20193            0    101.53557 
  170000    19.220053 -0.020408899    69.706967    285.18589          600          600          600 -0.025551499    31385.329 6.7742992e-05     88.92702   -7.3873333    1.2587633   -6.1285699    25.348623            0            0            0    25.348623            0            0    24.636163            0     88.92702 
  171000    7.5812272  0.011036258    86.280353     352.9911          600          600          600  0.011195754    29780.419 6.7742992e-05     93.86158   -10.179635    1.3626105   -8.8170244    16.398252            0            0            0    16.398252            0            0    128.62732            0     93.86158 
  172000    19.728446 0.0025901719     77.02483    315.12481          600          600          600  0.017174857    29863.325 6.7742992e-05    96.753276   -7.8291336    1.1995082   -6.6296254    26.358071            0            0            0    26.358071            0            0    104.91268            0    96.753276 
  173000    18.642403 -0.040205601    71.296575    291.68931          600          600          600 -0.039298996    30296.471 6.7742992e-05    89.938978    -9.552373    1.4311542   -8.1212188    26.763622            0            0            0    26.763622            0            0   -36.714232            0    89.938978 
  174000    27.405149 0.0033190332    62.057723    253.89122          600          600          600  0.024051735    31649.631 6.7742992e-05    89.462872  -0.76856146    1.3489683   0.58040687    26.824742            0            0            0    26.824742            0            0    99.918286            0    89.462872 
  175000    16.507492  0.004693944     85.51379    349.85493          600          600          600 -0.0040423703    32970.718 6.7742992e-05    102.02128   -7.5023277   0.95094616   -6.5513816    23.058873            0            0            0    23.058873            0            0    116.80785            0    102.02128 
  176000     15.26657  0.009511153    64.139005    262.40618          600          600          600 0.0045099768    30330.648 6.7742992e-05    79.405574   -7.7187138    1.3225601   -6.3961538    21.662723            0            0            0    21.662723            0            0    109.36702            0    79.405574 
  177000    14.218583 0.0011489438    73.025797    298.76392          600          600          600   0.00537635    30158.576 6.7742992e-05     87.24438   -8.8193163   0.95870901   -7.8606073     22.07919            0            0            0     22.07919            0            0    90.863712            0     87.24438 
  178000    14.745048 -0.0062622422    77.760636    318.13514          600          600          600 -0.004679928    29777.036 6.7742992e-05    92.505684    -6.904262    1.1427393   -5.7615227    20.506571            0            0            0    20.506571            0            0    72.778754            0    92.505684 
  179000    16.943277 -0.040468218    61.260157    250.62821          600          600          600 -0.060993123    28752.135 6.7742992e-05    78.203434   -13.095657    1.4186295   -11.677027    28.620304            0            0            0    28.620304            0            0   -49.277054            0    78.203434 
  180000    2.5314535 -0.0069485504    80.977292    331.29516          600          600          600 -0.0067916334    24965.649 6.7742992e-05    83.508745   -16.896173    2.2633815   -14.632792    17.164245            0            0            0    17.164245            0            0     61.61985            0    83.508745 
  181000    15.049713 0.0011606187    74.786131    305.96582          600          600          600 0.0021380633    25212.366 6.7742992e-05    89.835844   -14.172533    2.2522513   -11.920282    26.969995            0            0            0    26.969995            0            0    93.491954            0    89.835844 
  182000    13.766122 -0.0064823248    70.384977    287.95977          600          600          600 -0.0067122453    24844.682 6.7742992e-05    84.151099   -11.814935    1.5233652    -10.29157    24.057692            0            0            0    24.057692            0            0    63.730878            0    84.151099 
  183000    15.399814 -0.030501728    78.855448    322.61425          600          600          600 -0.026041443    25473.287 6.7742992e-05    94.255262   -12.514114    1.3664491   -11.147665    26.547479            0            0            0    26.547479            0            0   -1.8294057            0    94.255262 
  184000    17.273125  0.019832328    83.709355    342.47261          600          600          600  0.030077549    27583.761 6.7742992e-05    100.98248   -8.4870387    1.2002426   -7.2867961    24.559921            0            0            0    24.559921            0            0    163.45706            0    100.98248 
  185000    15.928093 -0.0096655752    72.279985    295.71265          600          600          600 -0.020055407    28123.078 6.7742992e-05    88.208078   -9.2105879    1.4065737   -7.8040143    23.732107            0            0            0    23.732107            0            0    57.760177            0    88.208078 
  186000    9.7272678  0.006842212    83.667276    342.30046          600          600          600  0.020302258    26466.994 6.7742992e-05    93.394544   -15.824089    1.9674583   -13.856631    23.583899            0            0            0    23.583899            0            0    114.94846            0    93.394544 
  187000    17.288646 0.0057766815    67.496518    276.14248          600          600          600  0.022099389     23628.95 6.7742992e-05    84.785164   -8.6946415     1.945342   -6.7492994    24.037946            0            0            0    24.037946            0            0    102.98251            0    84.785164 
  188000    17.176995   0.01468495     69.74425    285.33842          600          600          600 0.0036614847     25533.61 6.7742992e-05    86.921245     -13.1327    1.4858646   -11.646835     28.82383            0            0            0     28.82383            0            0    133.18087            0    86.921245 
  189000    13.767058 -0.011392121    64.642169    264.46473          600          600          600 -0.022855272    28147.613 6.7742992e-05    78.409227   -9.6716318    1.4397559   -8.2318759    21.998934            0            0            0    21.998934            0            0    42.522469            0    78.409227 
  190000    4.6761462  0.016174252    77.080605      315.353          600          600          600  0.024395273    27571.069 6.7742992e-05    81.756751   -14.440743    1.9125451   -12.528198    17.204344            0            0            0    17.204344            0            0    132.70788            0    81.756751 
  191000    22.709213 -0.033796522    70.282814     287.5418          600          600          600 -0.025508165    27972.843 6.7742992e-05    92.992028   -9.9237012    1.1840347   -8.7396664     31.44888            0            0            0     31.44888            0            0   -13.471694            0    92.992028 
  192000    26.123924 -0.014776272    80.831559    330.69894          600          600          600  0.016711606    29429.788 6.7742992e-05    106.95548   -7.3893499    1.0218671   -6.3674828    32.491407            0            0            0    32.491407            0            0    60.408179            0    106.95548 
  193000    16.078792 -0.012249452    64.169961    262.53283          600          600          600 0.0093571627    30375.898 6.7742992e-05    80.248753   -6.7459474     1.064885   -5.6810624    21.759854            0            0            0    21.759854            0            0    41.661283            0    80.248753 
  194000    18.133546  0.002823084    75.412944    308.53024          600          600          600 0.0033606904     29570.88 6.7742992e-05     93.54649   -10.261801    1.2555928   -9.0062085    27.139755            0            0            0    27.139755            0            0     102.4396            0     93.54649 
  195000    11.477122  0.021068134    73.832013    302.06232          600          600          600  0.024116584    25771.136 6.7742992e-05    85.309135   -11.314739    1.6413687   -9.6733706    21.150493            0            0            0    21.150493            0            0    151.67667            0    85.309135 
  196000    13.757963 -0.0064754848    73.785498    301.87202          600          600          600 -0.027613097    24587.621 6.7742992e-05    87.543461   -9.0938932    1.1923979   -7.9014952    21.659458            0            0            0    21.659458            0            0    67.144787            0    87.543461 
  197000    22.696272 -0.0085240525    70.223429    287.29884          600          600          600 -0.0012959235    25712.208 6.7742992e-05    92.919701   -9.5838636    1.7856749   -7.7981887    30.494461            0            0            0    30.494461            0            0    66.067756            0    92.919701 
  198000    7.3951148 0.0023738898    72.223454    295.48137          600          600          600 0.0077985686    23436.187 6.7742992e-05    79.618568   -15.791486    1.7876016   -14.003884    21.398999            0            0            0    21.398999            0            0     87.09665            0    79.618568 
  199000    14.116825 0.0020174927    71.583891    292.86478          600          600          600  0.013252992    24496.578 6.7742992e-05    85.700717   -8.9612238    1.4058324   -7.5553913    21.672217            0            0            0    21.672217            0            0    92.056098            0    85.700717 
  200000    15.590635  0.011850478     67.41419    275.80565          600          600          600  0.022002211    24671.215 6.7742992e-05    83.004824   -9.6093443     1.218336   -8.3910083    23.981643            0            0            0    23.981643            0            0    120.33547            0    83.004824 
  201000    13.106739  0.011377231    70.430746    288.14702          600          600          600  0.038855779    25881.978 6.7742992e-05    83.537485   -11.488082    1.5102074   -9.9778745    23.084614            0            0            0    23.084614            0            0    119.37734            0    83.537485 
  202000    20.216608 -0.0095084194    79.267298    324.29922          600          600          600 -0.0038809687    25867.931 6.7742992e-05    99.483906   -7.1737219    1.3196843   -5.8540375    26.070645            0            0            0    26.070645            0            0    69.531068            0    99.483906 
  203000    15.317734 0.00092040661    88.207478    360.87538          600          600          600  0.010139199    26698.647 6.7742992e-05    103.52521   -8.9812148    1.3947863   -7.5864285    22.904162            0            0            0    22.904162            0            0    106.42462            0    103.52521 
  204000    12.588499  0.003352318    73.384394    300.23102          600          600          600 -0.0065373473    26689.473 6.7742992e-05    85.972893   -8.1065041    1.8303223   -6.2761818     18.86468            0            0            0     18.86468            0            0    96.533159            0    85.972893 
  205000    12.173942  0.011661583       69.126    282.80903          600          600          600  0.017626721     26453.64 6.7742992e-05    81.299942   -13.035206    2.0575155    -10.97769    23.151633            0            0            0    23.151633            0            0    118.03554            0    81.299942 
  206000    18.298343 -0.0078015667    65.172156    266.63302          600          600          600 -0.0058575836    28308.523 6.7742992e-05    83.470499   -8.9410976    1.4218952   -7.5192024    25.817545            0            0            0    25.817545            0            0    58.894484            0    83.470499 
  207000    12.983371 0.0037573687    81.615723    333.90712          600          600          600 -0.004984737     27244.94 6.7742992e-05    94.599094   -12.499691    1.6771789   -10.822512    23.805883            0            0            0    23.805883            0            0    106.43533            0    94.599094 
  208000    12.185881 -0.0031232565    80.868335     330.8494          600          600          600  0.013842287    27318.049 6.7742992e-05    93.054215   -13.118549    1.7712167   -11.347332    23.533213            0            0            0    23.533213            0            0    83.215525            0    93.054215 
  209000    20.491575  0.010373117    76.045341    311.11751          600          600          600  0.029241383    26546.228 6.7742992e-05    96.536916   -10.354317    1.5958485   -8.7584689    29.250044            0            0            0    29.250044            0            0    129.21367            0    96.536916 
  210000    18.537774 -0.0029459844    73.792662    301.90133          600          600          600 -0.015568889    28081.278 6.7742992e-05    92.330436   -10.486066    1.3449171   -9.1411484    27.678922            0            0            0    27.678922            0            0    83.050177            0    92.330436 
  211000    12.145191 0.0094938514    78.985721    323.14723          600          600          600  0.020605935    26607.695 6.7742992e-05    91.130912   -9.2808626     1.289128   -7.9917347    20.136926            0            0            0    20.136926            0            0    121.03786            0    91.130912 
  212000    18.931651 0.0061518903    70.651347    289.04954          600          600          600  0.019145474    25892.044 6.7742992e-05    89.582997   -7.7596817    1.2022725   -6.5574092     25.48906            0            0            0     25.48906            0            0     108.9623            0    89.582997 
  213000    6.3541132  0.014178512    69.657158    284.98211          600          600          600  0.027504912    26243.268 6.7742992e-05    76.011272   -11.996932    1.3708996   -10.626033    16.980146            0            0            0    16.980146            0            0    120.67555            0    76.011272 
  214000     15.01332  0.017123176    75.788706    310.06757          600          600          600  0.023444751    25854.537 6.7742992e-05    90.802027   -7.8770444    1.1911969   -6.6858475    21.699168            0            0            0    21.699168            0            0     144.7424            0    90.802027 
  215000    8.0365804  0.013515838    79.209022     324.0608          600          600          600  0.013091831    24851.453 6.7742992e-05    87.245602   -9.8662309    1.4883912   -8.3778398     16.41442            0            0            0     16.41442            0            0    129.82236            0    87.245602 
  216000    13.034637 -0.0066933487    72.735826    297.57759          600          600          600 0.0037913984    23878.895 6.7742992e-05    85.770463   -11.160171    1.9291803    -9.230991    22.265628            0            0            0    22.265628            0            0    64.685488            0    85.770463 
  217000    18.767096 -0.028810177    82.569303    337.80841          600          600          600 -0.043067691    25383.257 6.7742992e-05     101.3364   -8.4388867    1.3686142   -7.0702725    25.837368            0            0            0    25.837368            0            0    10.580353            0     101.3364 
  218000    15.737036  0.015273768    74.539486    304.95674          600          600          600  0.019053491    25148.421 6.7742992e-05    90.276523   -7.3675312    1.3271852   -6.0403459    21.777382            0            0            0    21.777382            0            0    138.39101            0    90.276523 
  219000     15.98488 -0.013109972    63.413266    259.43703          600          600          600 -0.016850121     24490.57 6.7742992e-05    79.398146   -8.0914083    1.5607457   -6.5306626    22.515543            0            0            0    22.515543            0            0    38.099918            0    79.398146 
  220000    17.745459 -0.0010831708    81.029137    331.50727          600          600          600 0.00011214065    26317.202 6.7742992e-05    98.774596   -13.142531    1.7338045   -11.408727    29.154186            0            0            0    29.154186            0            0    95.362458            0    98.774596 
  221000    17.031654  0.016051602    74.956679    306.66357          600          600          600 0.0033375769     24280.04 6.7742992e-05    91.988333   -8.2911239     1.724772   -6.5663519    23.598006            0            0            0    23.598006            0            0     142.5531            0    91.988333 
  222000    15.330514  -0.01066997    77.092639    315.40223          600          600          600 -0.025812478    25063.365 6.7742992e-05    92.423153    -9.372067    1.3465342   -8.0255328    23.356047            0            0            0    23.356047            0            0    58.811271            0    92.423153 
  223000     8.370502 -0.011331248    64.740665     264.8677          600          600          600 0.00021915491    22834.719 6.7742992e-05    73.111167   -14.318527    2.1902633   -12.128264    20.498766            0            0            0    20.498766            0            0    37.416166            0    73.111167 
  224000    14.942272 -0.020448958    79.925604    326.99249          600          600          600 -0.012596811    23216.304 6.7742992e-05    94.867876   -15.726217    2.1469516   -13.579265    28.521537            0            0            0    28.521537            0            0    30.450828            0    94.867876 
  225000    19.399623 -0.028742661    74.072365    303.04565          600          600          600 -0.021017597    22465.354 6.7742992e-05    93.471988   -13.251125    1.5947323   -11.656392    31.056016            0            0            0    31.056016            0            0    2.9286282            0    93.471988 
  226000    16.708058 0.0028716032    86.456353    353.71116          600          600          600 -0.0085310692    24489.426 6.7742992e-05    103.16441    -10.85166    1.5932805   -9.2583791    25.966437            0            0            0    25.966437            0            0    112.21036            0    103.16441 
  227000    8.2601827   0.02316421      77.3891    316.61512          600          600          600  0.014283532     24563.43 6.7742992e-05    85.649283   -13.849176    1.8714961    -11.97768    20.237863            0            0            0    20.237863            0            0    158.61975            0    85.649283 
  228000    16.255068 0.0091847098    71.615919    292.99581          600          600          600 -0.0037439419    24095.225 6.7742992e-05    87.870987   -11.594492    1.5911183   -10.003374    26.258442            0            0            0    26.258442            0            0    116.80409            0    87.870987 
  229000    14.648982 0.0044268523    65.632128    268.51486          600          600          600  0.021294743    26324.139 6.7742992e-05     80.28111    -14.89563    1.4724145   -13.423215    28.072198            0            0            0    28.072198            0            0    94.226308            0     80.28111 
  230000    22.330108  0.011567259     73.44561    300.48147          600          600          600  0.012261775    26217.022 6.7742992e-05    95.775718   -10.440223    1.4031361   -9.0370865    31.367194            0            0            0    31.367194            0            0    132.21419            0    95.775718 
  231000    15.260567  0.014309783    75.705051    309.72531          600          600          600  0.006213436     25084.65 6.7742992e-05    90.965618   -8.7117671    1.5820588   -7.1297084    22.390275            0            0            0    22.390275            0            0    136.04342            0    90.965618 
  232000     18.91964 -0.014679754    71.341288    291.87224          600          600          600 -0.022511613    26159.628 6.7742992e-05    90.260928   -8.9951342      1.34806   -7.6470742    26.566714            0            0            0    26.566714            0            0    44.017669            0    90.260928 
  233000    18.275981  -0.01407894     72.26465    295.64991          600          600          600 -0.010994964    27265.662 6.7742992e-05    90.540631   -7.9337551     1.272929   -6.6608261    24.936807            0            0            0    24.936807            0            0    46.190022            0    90.540631 
  234000    26.150285 -0.017376644    66.552591    272.28067          600          600          600 -0.020169346     30028.38 6.7742992e-05    92.702877   -6.2147248   0.93727302   -5.2774518    31.427737            0            0            0    31.427737            0            0    37.964044            0    92.702877 
  235000     19.14354 0.0091828064    82.699344    338.34044          600          600          600 -0.0032704705    27473.187 6.7742992e-05    101.84288    -5.704896     1.228441   -4.4764551    23.619995            0            0            0    23.619995            0            0       130.77            0    101.84288 
  236000    19.368196 2.5372393e-05    73.162834    299.32457          600          600          600  0.015599767    25159.132 6.7742992e-05     92.53103   -10.701909    1.3962146    -9.305694    28.673891            0            0            0    28.673891            0            0    92.610957            0     92.53103 
  237000    13.780787  0.013578608    79.289922    324.39178          600          600          600  0.016008945    24101.594 6.7742992e-05    93.070709   -8.3813819    1.5312851   -6.8500968    20.630884            0            0            0    20.630884            0            0    135.84521            0    93.070709 
[...]
 4943000    22.612871 0.0088206284    71.360165    291.94947          600          600          600  0.017658806    32499.372 6.7742992e-05    93.973037   -6.1707431    1.2432708   -4.9274723    27.540344            0            0            0    27.540344            0            0    121.75924            0    93.973037 
 4944000    18.934981   0.01478429    67.999774     278.2014          600          600          600  0.021670839    32052.332 6.7742992e-05    86.934755   -6.4778478    1.0282862   -5.4495615    24.384543            0            0            0    24.384543            0            0    133.50732            0    86.934755 
 4945000    19.504667 -0.0077608214    81.269885    332.49222          600          600          600 -0.0015165741    31266.476 6.7742992e-05    100.77455    -8.148567    1.4185728   -6.7299942    26.234661            0            0            0    26.234661            0            0     76.32689            0    100.77455 
 4946000    14.415207 -0.0099798515    77.618164    317.55226          600          600          600 0.0053849103    29760.979 6.7742992e-05     92.03337   -13.370746     1.333155   -12.037591    26.452798            0            0            0    26.452798            0            0    60.595457            0     92.03337 
 4947000    18.430923 -0.026524032    62.530775    255.82658          600          600          600 -0.021880001     28865.12 6.7742992e-05    80.961698   -8.5664454     1.127601   -7.4388444    25.869768            0            0            0    25.869768            0            0    -2.592675            0    80.961698 
 4948000    16.673213 -0.004827661    68.393146    279.81077          600          600          600 -0.0021357939    29515.112 6.7742992e-05    85.066359   -8.7911498    1.2460432   -7.5451066     24.21832            0            0            0     24.21832            0            0    69.858558            0    85.066359 
 4949000    21.681024 -0.019658371    79.403332    324.85576          600          600          600 -0.017086415    29425.659 6.7742992e-05    101.08436   -7.9752823    1.2539052   -6.7213771    28.402401            0            0            0    28.402401            0            0    39.157765            0    101.08436 
 4950000     11.85974  0.010567739    63.619814    260.28206          600          600          600 0.00065096903     32031.77 6.7742992e-05    75.479554   -7.2152594    1.2127528   -6.0025066    17.862247            0            0            0    17.862247            0            0     108.7694            0    75.479554 
 4951000    17.201867   0.02313234    75.779579    310.03022          600          600          600  0.002239151    33515.286 6.7742992e-05    92.981446   -6.0564406    1.0551777   -5.0012629     22.20313            0            0            0     22.20313            0            0    165.85152            0    92.981446 
 4952000    29.071241 0.0010384228    75.649447    309.49783          600          600          600 -0.0054350804    32303.884 6.7742992e-05    104.72069   -2.8738223   0.87226422   -2.0015581    31.072799            0            0            0    31.072799            0            0    107.99186            0    104.72069 
 4953000    25.319003 -0.0030092197    63.249442    258.76679          600          600          600 0.0042000855    31671.618 6.7742992e-05    88.568445   -5.4729078    1.0988134   -4.3740944    29.693097            0            0            0    29.693097            0            0    79.088986            0    88.568445 
 4954000    22.123149 -0.008832605    63.110041    258.19648          600          600          600 -0.015086926    32897.018 6.7742992e-05     85.23319   -7.3941065    1.1042616   -6.2898449    28.412993            0            0            0    28.412993            0            0    57.409261            0     85.23319 
 4955000    20.221732  0.015154121    74.955613    306.65921          600          600          600  0.005729117    32804.136 6.7742992e-05    95.177345   -6.6736864     1.248136   -5.4255504    25.647282            0            0            0    25.647282            0            0    142.91492            0    95.177345 
 4956000    16.292966  0.026929336    81.231053    332.33335          600          600          600  0.026746169    31240.161 6.7742992e-05    97.524019   -7.6504293    1.1273759   -6.5230535     22.81602            0            0            0     22.81602            0            0    182.35515            0    97.524019 
 4957000    21.345603 0.0075585176    83.896349    343.23764          600          600          600  0.018030655    29709.752 6.7742992e-05    105.24195   -6.2272595    1.1694815    -5.057778    26.403381            0            0            0    26.403381            0            0    129.05233            0    105.24195 
 4958000    18.232062  0.014661301    73.975255    302.64836          600          600          600  0.017353523    28111.203 6.7742992e-05    92.207317   -4.1714692    1.1945956   -2.9768736    21.208936            0            0            0    21.208936            0            0    138.39245            0    92.207317 
 4959000    19.147926  0.013598032    76.858838     314.4457          600          600          600  0.017210862    29009.863 6.7742992e-05    96.006763   -7.2646808    1.0508986   -6.2137823    25.361708            0            0            0    25.361708            0            0    138.84245            0    96.006763 
 4960000    19.293091 0.00092327175    71.115399    290.94808          600          600          600 -0.0054755301    28823.464 6.7742992e-05     90.40849   -8.2379624    1.0752703   -7.1626921    26.455783            0            0            0    26.455783            0            0    93.316923            0     90.40849 
 4961000    13.617898 0.0077349612    73.431916    300.42544          600          600          600 0.0053823339     30420.18 6.7742992e-05    87.049814   -8.0635292    1.1121975   -6.9513317     20.56923            0            0            0     20.56923            0            0    111.41601            0    87.049814 
 4962000    30.534517 -0.022598185    74.948571    306.63039          600          600          600  -0.02272347    31906.038 6.7742992e-05    105.48309   -4.4508278    1.0107142   -3.4401136    33.974631            0            0            0    33.974631            0            0    34.295676            0    105.48309 
 4963000    24.768389  0.012413707     77.48906    317.02407          600          600          600  0.014760747    31939.567 6.7742992e-05    102.25745   -5.3844196    1.5148974   -3.8695221    28.637911            0            0            0    28.637911            0            0    141.36235            0    102.25745 
 4964000    18.042958  0.019077729    64.378803    263.38725          600          600          600  0.019471184    30497.153 6.7742992e-05    82.421761   -8.7109253   0.98817506   -7.7227502    25.765709            0            0            0    25.765709            0            0    142.51925            0    82.421761 
 4965000    12.057354  -0.01327075     87.65674    358.62219          600          600          600 -0.013647624    29181.827 6.7742992e-05    99.714095   -11.837124    1.6824284   -10.154696     22.21205            0            0            0     22.21205            0            0    57.909394            0    99.714095 
 4966000    12.086579  0.016349519    72.124804    295.07777          600          600          600  0.030792306    28933.418 6.7742992e-05    84.211383   -7.4537079    1.4589902   -5.9947177    18.081297            0            0            0    18.081297            0            0    135.71463            0    84.211383 
 4967000    17.039277  0.024214763    68.833042    281.61048          600          600          600  0.048447125    29271.436 6.7742992e-05     85.87232   -7.1301387    1.3168724   -5.8132663    22.852544            0            0            0    22.852544            0            0    162.15217            0     85.87232 
 4968000    19.080262  0.012599795     69.38983    283.88841          600          600          600 0.0033740202    30505.582 6.7742992e-05    88.470092   -7.2653419    1.4909118   -5.7744301    24.854692            0            0            0    24.854692            0            0    128.16119            0    88.470092 
 4969000    15.898057 -0.013145679    82.268327    336.57706          600          600          600 -0.023717001    28682.728 6.7742992e-05    98.166385   -9.7270633    1.5045123    -8.222551    24.120608            0            0            0    24.120608            0            0    56.755676            0    98.166385 
 4970000    14.591097 -0.0089898325     66.72696    272.99405          600          600          600 0.0059207034    29315.217 6.7742992e-05    81.318057   -10.266976    1.5366886   -8.7302871    23.321384            0            0            0    23.321384            0            0     52.99884            0    81.318057 
 4971000    16.280929 -0.0091364075    72.525663    296.71777          600          600          600 0.0092616477    29245.719 6.7742992e-05    88.806592   -8.3236162    1.2667737   -7.0568425    23.337772            0            0            0    23.337772            0            0    60.025643            0    88.806592 
 4972000     14.78099  0.013817737    70.982649    290.40497          600          600          600 0.0059220779    29292.082 6.7742992e-05     85.76364   -5.4492236    1.0188929   -4.4303307    19.211321            0            0            0    19.211321            0            0    129.29143            0     85.76364 
 4973000    18.933526  0.028968545    72.150545    295.18308          600          600          600  0.034321674    29435.985 6.7742992e-05    91.084071   -9.1750909   0.99631666   -8.1787742      27.1123            0            0            0      27.1123            0            0      182.339            0    91.084071 
 4974000    27.517433 0.0081639088    69.833649    285.70417          600          600          600 0.0051747378    29433.506 6.7742992e-05    97.351082   -8.7720202    1.1729028   -7.5991174     35.11655            0            0            0     35.11655            0            0    123.06852            0    97.351082 
 4975000    26.304892 -0.021244608    76.862761    314.46175          600          600          600 -0.016281974    26683.021 6.7742992e-05    103.16765   -9.0533954     1.335016   -7.7183795    34.023271            0            0            0    34.023271            0            0    36.244196            0    103.16765 
 4976000    16.068347 -0.0093599462    71.238802    291.45295          600          600          600 -0.028194101     26260.52 6.7742992e-05    87.307149   -12.678434     1.126858   -11.551576    27.619922            0            0            0    27.619922            0            0    57.822023            0    87.307149 
 4977000    12.569495   0.02256214    74.108628    303.19401          600          600          600  0.024647708    25508.919 6.7742992e-05    86.678123   -7.6351761    1.3784684   -6.2567077    18.826203            0            0            0    18.826203            0            0    157.75199            0    86.678123 
 4978000    12.935288  0.021445577    79.225334    324.12753          600          600          600 -0.002107347    22616.656 6.7742992e-05    92.160622   -9.1552871    1.7998274   -7.3554597    20.290748            0            0            0    20.290748            0            0    159.71716            0    92.160622 
 4979000    12.580011  0.017517951    68.380123    279.75749          600          600          600  0.017762441    20544.503 6.7742992e-05    80.960134   -10.058512    2.4779455   -7.5805662    20.160577            0            0            0    20.160577            0            0     136.1441            0    80.960134 
 4980000    13.476584  0.022852779    81.255022    332.43141          600          600          600  0.021915724    21079.659 6.7742992e-05    94.731605   -8.6247425     1.607094   -7.0176484    20.494232            0            0            0    20.494232            0            0    166.72102            0    94.731605 
 4981000    14.728548 -0.0051578404    74.849262     306.2241          600          600          600 -0.0069446405    23587.756 6.7742992e-05     89.57781    -9.953663    1.3600033   -8.5936597    23.322207            0            0            0    23.322207            0            0    73.329898            0     89.57781 
 4982000    19.417562 -0.010629543    80.733938    330.29955          600          600          600 -0.011630588    22809.138 6.7742992e-05     100.1515   -12.493684    1.9020106   -10.591673    30.009235            0            0            0    30.009235            0            0    66.666968            0     100.1515 
 4983000    19.361452 -0.022402373     86.40872    353.51628          600          600          600 -0.012991206    22736.066 6.7742992e-05    105.77017   -7.6680322    1.4931688   -6.1748634    25.536316            0            0            0    25.536316            0            0    35.199597            0    105.77017 
 4984000    13.284281 -0.0064268389    81.804031    334.67753          600          600          600 -0.0035168672    24348.117 6.7742992e-05    95.088312     -10.0363    1.3717787   -8.6645209    21.948802            0            0            0    21.948802            0            0     74.84288            0    95.088312 
 4985000    15.269392 -0.0026363415    90.638205    370.81999          600          600          600 -0.018329972    23976.768 6.7742992e-05     105.9076   -7.4664725    1.7600594   -5.7064131    20.975805            0            0            0    20.975805            0            0    97.602756            0     105.9076 
 4986000    12.987733 -0.014643326    66.911934    273.75082          600          600          600 -0.023724997    24854.546 6.7742992e-05    79.899667   -12.107091    1.8668504    -10.24024    23.227973            0            0            0    23.227973            0            0    33.771162            0    79.899667 
 4987000    17.615194 -0.013980776     73.77776    301.84036          600          600          600 -0.0033873074    26450.804 6.7742992e-05    91.392953   -11.697936    1.5150828   -10.182853    27.798047            0            0            0    27.798047            0            0    47.351574            0    91.392953 
 4988000    19.571662 0.0041098964    76.925926    314.72017          600          600          600 -0.0050736123    26102.161 6.7742992e-05    96.497588   -9.5590592    1.8535363   -7.7055229    27.277185            0            0            0    27.277185            0            0    109.44433            0    96.497588 
 4989000    19.225819 -0.010474097    71.116506    290.95261          600          600          600 -0.012682518    26372.802 6.7742992e-05    90.342325    -10.55828    1.9603391   -8.5979408     27.82376            0            0            0     27.82376            0            0    57.347469            0    90.342325 
 4990000    26.931772 -0.020886294    69.941483    286.14534          600          600          600 -0.033256756    25044.359 6.7742992e-05    96.873255   -10.110054    1.8613818   -8.2486725    35.180445            0            0            0    35.180445            0            0    31.078537            0    96.873255 
 4991000    17.321957 -0.0010500092     74.36372    304.23765          600          600          600 -0.017601127    22529.672 6.7742992e-05    91.685677   -12.074101    1.6624122   -10.411689    27.733646            0            0            0    27.733646            0            0    88.378003            0    91.685677 
 4992000    16.257692 -0.0076061715    80.890007    330.93806          600          600          600 -0.0026918009    25577.364 6.7742992e-05    97.147699   -11.346971    1.8230935    -9.523877    25.781569            0            0            0    25.781569            0            0    73.187206            0    97.147699 
 4993000    26.074119 -0.0050468396    70.733344    289.38501          600          600          600   0.01792658    28815.147 6.7742992e-05    96.807463   -8.0172542    1.5127311   -6.5045231    32.578642            0            0            0    32.578642            0            0     80.90922            0    96.807463 
 4994000    6.6942274  0.014303401    77.774778      318.193          600          600          600 0.0099917022    28089.177 6.7742992e-05    84.469006     -11.3782    1.5994937   -9.7787063    16.472934            0            0            0    16.472934            0            0     129.5267            0    84.469006 
 4995000     16.83099 -0.012301515    69.887296    285.92365          600          600          600 -0.003708896    28703.338 6.7742992e-05    86.718286   -8.7222828    1.6186212   -7.1036615    23.934652            0            0            0    23.934652            0            0    47.966812            0    86.718286 
 4996000    9.4410776  0.015709295    82.473297    337.41564          600          600          600  0.028213183    25934.951 6.7742992e-05    91.914375   -12.358257    1.5506956   -10.807562    20.248639            0            0            0    20.248639            0            0    141.40083            0    91.914375 
 4997000    11.300694  0.010810266    68.051453    278.41283          600          600          600 -0.0079790171     24594.83 6.7742992e-05    79.352147   -13.361725    1.9869881   -11.374737    22.675431            0            0            0    22.675431            0            0    113.40598            0    79.352147 
 4998000    14.579013  0.018892909    78.542142    321.33245          600          600          600    0.0285309    25225.103 6.7742992e-05    93.121155    -13.05557    2.3976517   -10.657918    25.236931            0            0            0    25.236931            0            0    152.63643            0    93.121155 
 4999000   0.11760634 -0.0012301715    83.679521    342.35055          600          600          600 -0.0027169946    23841.975 6.7742992e-05    83.797127   -18.882848    2.2426903   -16.640157    16.757764            0            0            0    16.757764            0            0    79.921917            0    83.797127 
 5000000    19.254923  0.010595836    73.063332    298.91749          600          600          600  0.013156752    23117.647 6.7742992e-05    92.318255   -9.0247125    2.0739725   -6.9507399    26.205663            0            0            0    26.205663            0            0    125.69661            0    92.318255 
Loop time of 190.958 on 1 procs for 5000000 steps with 83 atoms

Performance: 22622.834 ns/day, 0.001 hours/ns, 26183.835 timesteps/s
99.7% CPU use with 1 MPI tasks x no OpenMP threads

MPI task timing breakdown:
Section |  min time  |  avg time  |  max time  |%varavg| %total
---------------------------------------------------------------
Pair    | 103.61     | 103.61     | 103.61     |   0.0 | 54.26
Bond    | 4.3065     | 4.3065     | 4.3065     |   0.0 |  2.26
Neigh   | 45.914     | 45.914     | 45.914     |   0.0 | 24.04
Comm    | 2.5346     | 2.5346     | 2.5346     |   0.0 |  1.33
Output  | 0.56498    | 0.56498    | 0.56498    |   0.0 |  0.30
Modify  | 20.157     | 20.157     | 20.157     |   0.0 | 10.56
Other   |            | 13.87      |            |       |  7.26

Nlocal:        83.0000 ave          83 max          83 min
Histogram: 1 0 0 0 0 0 0 0 0 0
Nghost:         0.00000 ave           0 max           0 min
Histogram: 1 0 0 0 0 0 0 0 0 0
Neighs:        1276.00 ave        1276 max        1276 min
Histogram: 1 0 0 0 0 0 0 0 0 0

Total # of neighbors = 1276
Ave neighs/atom = 15.373494
Ave special neighs/atom = 1.9759036
Neighbor list builds = 124719
Dangerous builds = 40
Total wall time: 0:03:10
