ITEM: TIMESTEP
100000
ITEM: NUMBER OF ATOMS
50
ITEM: BOX BOUNDS pp pp pp
-3.0000000000000000e+02 3.0000000000000000e+02
-3.0000000000000000e+02 3.0000000000000000e+02
-3.0000000000000000e+02 3.0000000000000000e+02
ITEM: ATOMS id mol type q xu yu zu
1 1 3 0.75     200.057235643245    -26.1137994157712    -13.3398057768984
2 1 8 -0.75     197.120324170445    -28.6888315301777    -13.1919736294578
3 1 3 0.75     195.273400289095    -29.1620189537741    -10.3348154031933
4 1 8 -0.75     198.336588378148    -30.2390642359072    -8.09914855759488
5 1 3 0.75     197.108591934311    -31.8567693062701     -5.0232234424119
6 1 8 -0.75     193.325733475439    -32.1849508467829     -5.5269212826781
7 1 3 0.75      192.02849200651    -28.9553410739046     -4.5665705557262
8 1 8 -0.75     191.395178914065    -26.4958255149128    -1.95168703043655
9 1 3 0.75     188.253438188795    -24.4512051673034    -3.03770805195819
10 1 8 -0.75     186.438570662627    -21.1003217085294    -3.48039739625877
11 1 3 0.75     182.795183754646    -19.3650957432444    -3.15532544075909
12 1 8 -0.75     179.419520357279    -21.1493877021888    -2.10839930092833
13 1 3 0.75     176.209890025131     -23.070544223345     -1.3627134826162
14 1 8 -0.75     172.731222823331    -22.5412746632525    -1.76432352045226
15 1 3 0.75     171.826967832808    -23.6629907837824    -5.36958204448719
16 1 8 -0.75     168.183215456803    -24.8315272865203    -5.70263671685207
17 1 3 0.75     165.414260512021    -25.9258057301647    -3.27879291528826
18 1 8 -0.75     163.771028504207    -27.8688969450652  -0.0653167240230044
19 1 3 0.75     161.889324639639    -24.9159840699422     1.38542789480946
20 1 8 -0.75       160.6620816393    -26.4861406122405      4.6916349964922
21 1 3 0.75     162.350239102246    -27.0437588574129     8.28808463910048
22 1 8 -0.75     164.392537076867    -28.7155454762115     11.0490661559452
23 1 3 0.75     161.810863599394    -31.6755590761497     11.7351884882302
24 1 8 -0.75     162.812243887864    -35.3957382789382     11.6942729059525
25 1 3 0.75     159.389101169534    -37.1681437530082      11.499786443499
26 1 8 -0.75     156.774816341238    -34.6899673952552     10.3782638529563
27 1 3 0.75      152.78719616058    -35.0061707875633     10.7261030654912
28 1 8 -0.75     151.043257865303    -38.0136802093264     12.6617251162925
29 1 3 0.75     150.085936506235    -36.8042450823734     16.0253615290241
30 1 8 -0.75     147.644154571299    -38.5597037452901      17.832343657545
31 1 3 0.75     145.989381314998    -37.2132331085867     21.3210315244443
32 1 8 -0.75      143.33236480373    -35.1834664396216     20.1853487919067
33 1 3 0.75     139.871928328873    -33.6767435654214     20.1115753091268
34 1 8 -0.75     136.307076882253    -32.9643397452154      20.966741705889
35 1 3 0.75     134.842934983188    -35.8623278428365      18.805053277149
36 1 8 -0.75     134.338878207278    -39.7092935412091     16.9633740541967
37 1 3 0.75     137.659425614904     -41.111284994366     18.7040294232139
38 1 8 -0.75     139.968807099881    -42.8813672656998     21.3613502543484
39 1 3 0.75     140.928244355101    -45.7100575700862     23.9673512450871
40 1 8 -0.75     142.828176017382    -45.0159790850496     26.5315559546571
41 1 3 0.75     141.804934695462    -43.6855109081125     30.2683036480695
42 1 8 -0.75        138.259662129    -42.9520533687781     31.0760477693655
43 1 3 0.75     135.035266470456    -44.4263319304762     29.9796149591343
44 1 8 -0.75     132.497444836387    -41.8293328253463     28.5853074203689
45 1 3 0.75     128.723098042805    -41.6843056353129     29.5964790708822
46 1 8 -0.75     128.406704776098    -39.0388192338464     32.3330221328416
47 1 3 0.75     127.830003494644    -35.2733165203375     32.6719107607398
48 1 8 -0.75     126.497899693175    -31.8534790975409     32.9064780929999
49 1 3 0.75     127.055824242834    -28.7575005713766     35.1193136420798
50 1 8 -0.75      125.47030380462    -26.0621679912719     37.1685812732405
ITEM: TIMESTEP
200000
ITEM: NUMBER OF ATOMS
50
ITEM: BOX BOUNDS pp pp pp
-3.0000000000000000e+02 3.0000000000000000e+02
-3.0000000000000000e+02 3.0000000000000000e+02
-3.0000000000000000e+02 3.0000000000000000e+02
ITEM: ATOMS id mol type q xu yu zu
1 1 3 0.75     156.888874626721    -24.8641399303985     29.4928542016719
2 1 8 -0.75     158.140659904925    -27.6561477081743     26.9207700386904
3 1 3 0.75     161.272636226348    -29.1417132593445     25.7023687710049
4 1 8 -0.75     163.583433991256    -31.9070893238411     25.2791637476111
5 1 3 0.75     164.260735010857    -35.5008608652194     26.7513461615511
6 1 8 -0.75     166.131990336271     -37.638413591169     28.7093916148596
7 1 3 0.75     169.539903989688    -36.2142290924343     27.2445183106383
8 1 8 -0.75     173.510372014758    -35.7608918483244      27.186078056311
9 1 3 0.75     177.231318549145    -35.0818335634913     28.1677316125419
10 1 8 -0.75     178.657705849218    -38.8269137011838     28.6533962862053
11 1 3 0.75     180.601393901371    -42.1639973329907     28.9014990075026
12 1 8 -0.75     184.440873822557    -41.7076479483999     27.2156956434003
13 1 3 0.75     186.790151615441    -42.6646266670911     24.2138442200835
14 1 8 -0.75      187.71964423724    -41.1413598991157     20.6214574336438
15 1 3 0.75     187.864276964314    -37.4523757227217     18.5543222146006
16 1 8 -0.75     190.199144028269    -35.3944885749825      21.088936135053
17 1 3 0.75     193.462280365836    -33.4732390871328      21.414597768084
18 1 8 -0.75     193.047287552085    -29.6859219588819     20.9752683387471
19 1 3 0.75     191.917158316917    -26.0544463101596     21.3164065848429
20 1 8 -0.75     191.407985767211    -22.2607724371605     20.3805177574238
21 1 3 0.75     187.758769945453    -21.7712850054496     20.6272682621351
22 1 8 -0.75     184.360606121652    -22.2758617280578     22.6892150944969
23 1 3 0.75     183.421467335119    -19.2480339091209      24.712028214944
24 1 8 -0.75     181.835026699328    -15.9497358939909     23.4441495696542
25 1 3 0.75     184.070110765659    -13.6087739075436     21.5966383289956
26 1 8 -0.75     187.762114012047    -14.2745626896848     22.5873335272084
27 1 3 0.75     188.557381255559    -10.6253909431186     22.1796057093548
28 1 8 -0.75     191.076417712149    -9.20433546552777     19.9089930889343
29 1 3 0.75     195.133507249764    -8.70204763471843     19.8998359848285
30 1 8 -0.75     198.143947829687    -7.00892854162868     21.2775677470476
31 1 3 0.75     198.899718049897    -3.23686751286553     22.2644484626112
32 1 8 -0.75     199.032627669489   -0.611308200535223     25.2453009272412
33 1 3 0.75     199.612082683189     3.18449244071819     24.9553882443166
34 1 8 -0.75     202.191966889285     5.51782782870548     26.6251722005856
35 1 3 0.75     201.332481537645     7.94890392154265     29.4072567769471
36 1 8 -0.75     199.868607906904     9.52531075612667     32.5317928329682
37 1 3 0.75     199.814869352069     6.80901589010596     35.2103773864232
38 1 8 -0.75     197.072863795673     8.97389344875077     37.1853619079957
39 1 3 0.75     194.545661829271     10.5810932629042     39.8842228590362
40 1 8 -0.75     194.719038104599     12.7174004068559     42.9312462238605
41 1 3 0.75     193.120828849765     13.4007074375169     46.1498063927822
42 1 8 -0.75     190.069119098819     11.5413062628284      47.319669117864
43 1 3 0.75       187.0834765861     9.44276382796987     45.6534120047864
44 1 8 -0.75      185.25944884533      6.6728855847563     46.8895031969461
45 1 3 0.75      183.72064843264     3.67031278272008     48.3336546106416
46 1 8 -0.75      184.67326591922     0.02605170470463     47.7700552237417
47 1 3 0.75     183.597303021468    -1.18062932979532      44.523103748015
48 1 8 -0.75     180.886959078347     1.01750555493457     43.5047193593339
49 1 3 0.75     179.071795694648      1.7127701362942     40.2589835290776
50 1 8 -0.75     175.950372311169     2.62459896003535     38.0147796184626
ITEM: TIMESTEP
300000
ITEM: NUMBER OF ATOMS
50
ITEM: BOX BOUNDS pp pp pp
-3.0000000000000000e+02 3.0000000000000000e+02
-3.0000000000000000e+02 3.0000000000000000e+02
-3.0000000000000000e+02 3.0000000000000000e+02
ITEM: ATOMS id mol type q xu yu zu
1 1 3 0.75     207.150750094347     -30.955602665683     98.6893184932576
2 1 8 -0.75     205.393417194781    -34.5345702200248     98.0726723762462
3 1 3 0.75     203.851701502785    -35.3850649736146     94.6397485852304
4 1 8 -0.75     201.876904932745    -38.0271340744169     92.4857778947274
5 1 3 0.75     199.121803576944    -38.6191967694147     89.3467707007521
6 1 8 -0.75     196.135297568301    -40.4040779905294     91.5710530211355
7 1 3 0.75      194.38192028749    -42.6979926260529     89.6225123352071
8 1 8 -0.75     190.794104728794    -43.2898818774916     91.6376967564207
9 1 3 0.75      188.60684564425    -42.8944015256302      94.621797323945
10 1 8 -0.75     187.168013743099    -46.4566402027487      95.945961464842
11 1 3 0.75     183.656741509983    -45.1975021456343     95.8709545543936
12 1 8 -0.75      181.31546369365    -47.9856077464009     94.5976026026562
13 1 3 0.75     180.774001388585     -48.670047682113     90.8664847075675
14 1 8 -0.75     181.367963320521    -52.1620254449698      89.479384593952
15 1 3 0.75     179.680715790558    -52.0135807674372     85.6893123061232
16 1 8 -0.75     180.293652599962    -50.0694818948909     82.3867623052034
17 1 3 0.75     182.219864396886    -50.4779734570081     78.7398020314287
18 1 8 -0.75     183.925376680748    -53.3350452960548     76.8649269750591
19 1 3 0.75      184.17171998103    -54.9148628704037     73.6655810032604
20 1 8 -0.75     181.876280325831    -53.0557645161424     71.3384330370771
21 1 3 0.75     180.005401447858    -52.6958775854483     68.2437472554311
22 1 8 -0.75     180.682194879603    -53.3607624608133     64.6602583425155
23 1 3 0.75     181.353561469786    -51.8786096743924     61.2867160518014
24 1 8 -0.75     182.785342822186    -52.6074576181137     57.6204432216235
25 1 3 0.75     181.305954705741    -51.9283566137601     54.1582973861024
26 1 8 -0.75     183.363269638984    -49.5707383690541     51.6484932483711
27 1 3 0.75     183.278687887081    -50.7363222283614     48.1641938701049
28 1 8 -0.75     181.290731606356    -53.2609593567874      46.293802949331
29 1 3 0.75     178.794175499617    -52.5036223415374     43.6945017527278
30 1 8 -0.75      179.67932225278    -49.1539392703983     42.0347584653145
31 1 3 0.75     182.395195913259    -46.1707869709264     42.0409254916185
32 1 8 -0.75     184.152177023181    -42.8381874513991     41.2377165269097
33 1 3 0.75     182.500543699679    -39.4943093185703     42.3279151037267
34 1 8 -0.75     182.077090769794    -35.8352127536168     43.3851060893709
35 1 3 0.75     180.018313925494    -33.0997306299644     41.7921265614974
36 1 8 -0.75     182.245052603709    -29.6923815901498      42.127654746353
37 1 3 0.75     181.923525509239    -26.3102531405161     43.3523653199609
38 1 8 -0.75     178.485794512533     -25.133351213399      43.448314714199
39 1 3 0.75     176.680330052419    -28.3897077776094     42.7911924814926
40 1 8 -0.75     175.370770873817    -32.0061163374715      43.013702848258
41 1 3 0.75     173.329872506556    -34.4668414933436     45.2156298904357
42 1 8 -0.75     176.172764271025    -36.3919245460396     46.8326185588831
43 1 3 0.75     174.464057211132    -39.7545664526661     45.4135466448027
44 1 8 -0.75     172.746256119337    -41.4963564229636     42.5947072265041
45 1 3 0.75     172.042615085779    -44.0467878896796     39.7616024603125
46 1 8 -0.75     174.787239012975    -44.3028093003826     37.2803970378454
47 1 3 0.75      177.92494122903    -45.3985172049149     36.3080004530932
48 1 8 -0.75      180.90037728979    -44.8121548349495     33.8065005186035
49 1 3 0.75     181.442569603017    -43.8332970799981     30.0740333058777
50 1 8 -0.75     184.377562194998     -41.662772982996     30.1575304966671
ITEM: TIMESTEP
400000
ITEM: NUMBER OF ATOMS
50
ITEM: BOX BOUNDS pp pp pp
-3.0000000000000000e+02 3.0000000000000000e+02
-3.0000000000000000e+02 3.0000000000000000e+02
-3.0000000000000000e+02 3.0000000000000000e+02
ITEM: ATOMS id mol type q xu yu zu
1 1 3 0.75     136.417118846601     -73.654649295128     80.8386451192258
2 1 8 -0.75     136.265995931455    -76.6397159256251     82.7406390557594
3 1 3 0.75     139.795806770861     -77.997007592552     83.9260319884806
4 1 8 -0.75     142.447218841972    -76.1479595074083     86.5053288765017
5 1 3 0.75      144.51191726403    -76.9827359035469     89.8608985615789
6 1 8 -0.75     143.839594433663    -74.7280510151834     92.8077266918651
7 1 3 0.75     145.727240535159    -76.9838102630521     95.5149921629626
8 1 8 -0.75      147.22191994534    -76.4580854715585     99.3625567091868
9 1 3 0.75     151.282681711154    -76.8268369475357     100.212767169827
10 1 8 -0.75      152.23228472233    -76.4086853510624      103.95604495008
11 1 3 0.75     152.821825241831    -74.0176540739298     106.800874996662
12 1 8 -0.75     153.022123973752    -75.1531026944412      110.46883615769
13 1 3 0.75     156.195438396595    -77.1664774861134     110.874337683174
14 1 8 -0.75     157.794445463014    -79.7842759057386     112.928453362874
15 1 3 0.75      161.23580772111    -79.7462491236298     112.289771895366
16 1 8 -0.75     162.459149370929    -78.4964359449239     108.768498375708
17 1 3 0.75     161.513175976144    -81.7624548418905     106.684752821586
18 1 8 -0.75     160.097269674254    -80.7999698501265     103.016007427044
19 1 3 0.75     161.613344173093    -77.9400205403777     101.413257876585
20 1 8 -0.75     162.872425785511    -77.7315301477761     97.3381639727072
21 1 3 0.75     162.941312469507    -79.0847812064541     93.8903327078719
22 1 8 -0.75     160.384879646029    -77.3755510796208     91.8684179363879
23 1 3 0.75     159.017918136278    -79.5772046921185     89.0740176883126
24 1 8 -0.75       159.6697284024    -80.0905886259313     85.4252684080896
25 1 3 0.75     156.347388246894    -78.9720889785958     84.0185524403609
26 1 8 -0.75     152.501291730145    -79.0131395023476     83.4888252318607
27 1 3 0.75     148.959248259993    -77.4274180188703     83.8387063840488
28 1 8 -0.75     149.055753042414    -73.9210288571114     84.9416957354979
29 1 3 0.75     151.527650950655    -71.0053335840415     85.3725182759988
30 1 8 -0.75     151.717150056629    -67.0337143960897     84.6904156419125
31 1 3 0.75     150.096514983232    -65.1440261567291     87.3972016647234
32 1 8 -0.75     151.399183046493    -64.5029759489958     90.9956498600383
33 1 3 0.75     151.842955376325    -65.8400693664909     94.4339641234613
34 1 8 -0.75     152.729401356269     -69.261402031365     95.7404145083207
35 1 3 0.75     156.058222249887    -69.0619571262092     97.5812525396553
36 1 8 -0.75     159.411347506665    -69.7421519403997      98.918369102741
37 1 3 0.75     160.366754099164    -67.0140781066152     101.955312596444
38 1 8 -0.75     159.060097120411    -63.3809960619768     102.983572337845
39 1 3 0.75     161.436830501006    -61.2319780451309     104.919890676438
40 1 8 -0.75     162.757908467943    -58.8949168594691      102.19604077579
41 1 3 0.75      161.10048645518    -56.6514024853813     99.5874165117371
42 1 8 -0.75     159.435086990681    -53.5218058723729     98.8505477724912
43 1 3 0.75     158.363242087556    -50.4679384165965     96.8706667904351
44 1 8 -0.75      159.92013686121    -47.2790792093064     98.4374209733281
45 1 3 0.75     161.987316698546    -44.7860334671362     100.876542987731
46 1 8 -0.75     160.930276163152    -42.4738947241908     104.065853828789
47 1 3 0.75     163.313773495246    -39.5858658341328     102.833896137992
48 1 8 -0.75     166.810364393455    -38.3271041767414     102.237705242784
49 1 3 0.75     167.898225701515    -37.1742949371605     99.0856529543459
50 1 8 -0.75     170.463515431236    -35.5710156847626     96.4801049159658
ITEM: TIMESTEP
500000
ITEM: NUMBER OF ATOMS
50
ITEM: BOX BOUNDS pp pp pp
-3.0000000000000000e+02 3.0000000000000000e+02
-3.0000000000000000e+02 3.0000000000000000e+02
-3.0000000000000000e+02 3.0000000000000000e+02
ITEM: ATOMS id mol type q xu yu zu
1 1 3 0.75      85.622654969303    -52.0964417513682     70.7969061348552
2 1 8 -0.75     83.9814296306404     -55.005645867871     72.1461619801114
3 1 3 0.75     80.9654648704914    -52.8854143352095     73.3922913652052
4 1 8 -0.75     81.4043738534525    -53.8571244888949     77.1641993044934
5 1 3 0.75     80.7421654864939    -51.3178157218351     79.9035488139523
6 1 8 -0.75     84.3596295240239    -50.3531574109661     80.7722794659439
7 1 3 0.75     84.2999793165613    -51.8903884999299     84.2239887901136
8 1 8 -0.75     87.7375366428424    -52.0252117257652     85.8831708921558
9 1 3 0.75     89.7971763767111    -55.0880514821803     87.4879969421781
10 1 8 -0.75     90.5416142368066    -53.6081969995563     90.8528823450603
11 1 3 0.75     87.0540824510759     -51.723910224531     91.4334831229236
12 1 8 -0.75     85.7088284616106    -54.8039866188777     93.5641885147288
13 1 3 0.75     83.5005457665226    -57.3199599890758     91.4941462026218
14 1 8 -0.75     81.6456762933184    -59.3317197215985     93.9947947280179
15 1 3 0.75     82.6962447974139    -58.5035135137477     97.3489496025092
16 1 8 -0.75     81.5181413027926    -57.5219162109855     100.773596764965
17 1 3 0.75     80.9396899818115    -54.0170463256636      100.33384134287
18 1 8 -0.75      81.950934369365    -51.7381861872091     103.132637922089
19 1 3 0.75     82.5700217968627    -48.9250129530002     105.502772626992
20 1 8 -0.75      83.409681373387    -49.0621523725516     109.125421627721
21 1 3 0.75     86.7272108105132    -47.5468887960516      109.84050986076
22 1 8 -0.75     90.2365714437183    -49.0809986530264     109.625186612284
23 1 3 0.75     93.8302782691516    -48.3184211483814     109.142969648599
24 1 8 -0.75     95.8737276242439     -51.308721295599     107.984655257998
25 1 3 0.75     99.3651583697419    -50.5316465593822     106.129941006337
26 1 8 -0.75     97.8455448122314    -49.0759117593693     103.277310093315
27 1 3 0.75      98.999216065561    -49.8974485272663     99.7707299735565
28 1 8 -0.75     100.435358596312    -51.1484357966794     96.4146032416188
29 1 3 0.75     97.7641966576115    -52.1784170871335     93.5791999778194
30 1 8 -0.75     97.9192499811022    -56.1889729062537     94.0032342439602
31 1 3 0.75     100.769304539162    -57.4209185858784     95.5794725939431
32 1 8 -0.75     104.134777928656     -58.652612304644     94.0700991600795
33 1 3 0.75     106.144227878525    -61.6098183732514     95.1579430336734
34 1 8 -0.75     108.468106821881    -64.2461300489803     96.4113597526533
35 1 3 0.75     110.611059866638    -62.4830253433494     98.9962262531572
36 1 8 -0.75     109.928711937849    -58.8070863411252     99.9977887396819
37 1 3 0.75     110.363111393155    -56.1006578339098     102.775345221285
38 1 8 -0.75     112.440146375064    -54.3716281033993     105.459810378026
39 1 3 0.75     113.685467251317    -51.0474165985805     105.005040021198
40 1 8 -0.75     114.566657950889    -48.5269731894198     107.792664089934
41 1 3 0.75     115.888634793719    -45.4459813499397     105.942539398954
42 1 8 -0.75     117.506515596813    -43.2851563964745     109.095908726509
43 1 3 0.75     120.796188667617    -42.8354823635454     110.900860845436
44 1 8 -0.75     122.644176024246    -39.4071167240004     111.030723026292
45 1 3 0.75     122.721536913963    -37.0557822822525     113.824203461884
46 1 8 -0.75     121.204347801817    -39.2462365484424     116.220348988756
47 1 3 0.75     119.375743513559    -42.4002141732323     117.066522822421
48 1 8 -0.75     118.582940289387    -44.7536583118054     120.220325560942
49 1 3 0.75      120.18234942848     -44.238115204173     123.609603915721
50 1 8 -0.75     121.013285147827    -46.3934016308367     126.865317672938
ITEM: TIMESTEP
600000
ITEM: NUMBER OF ATOMS
50
ITEM: BOX BOUNDS pp pp pp
-3.0000000000000000e+02 3.0000000000000000e+02
-3.0000000000000000e+02 3.0000000000000000e+02
-3.0000000000000000e+02 3.0000000000000000e+02
ITEM: ATOMS id mol type q xu yu zu
1 1 3 0.75     78.6191640652557    -39.5361581129202     75.1246712133792
2 1 8 -0.75     79.1416686641095    -36.8085282384343     72.6807674997964
3 1 3 0.75      79.340366674113    -33.8328665581943     75.1366304467419
4 1 8 -0.75     80.4713862351099    -30.9843165224767      72.478020944209
5 1 3 0.75     77.3521906175856    -29.0756252527564     72.1935258365358
6 1 8 -0.75     74.4292383435428    -31.3424438097793     73.4266863637849
7 1 3 0.75     73.2472173282637    -34.8976925922286     74.6834567464468
8 1 8 -0.75     69.6235743795475    -36.3257539966319     75.0984382074016
9 1 3 0.75     69.1703699496265    -35.7039501825807     78.9477715675341
10 1 8 -0.75     72.3267359257026    -34.3032312379033     80.7653311303354
11 1 3 0.75     72.2097410059059    -36.8723137143893     83.5539121746516
12 1 8 -0.75     72.0498975556427    -35.5493986977077     87.0713475020515
13 1 3 0.75     70.1920566138947    -34.6115012678268     90.1055898726787
14 1 8 -0.75     66.9971442003412    -32.4002035058256     90.7070845355635
15 1 3 0.75     68.0484287736135    -28.7740280383181     90.3371431757042
16 1 8 -0.75     66.7271662776339    -25.8569665859205     88.3723692369381
17 1 3 0.75     66.6259515212887    -23.4119978838051     91.5382714601751
18 1 8 -0.75     63.9174081202804    -24.9142833565536     94.0420151346497
19 1 3 0.75     63.1493859330928    -24.0099043870866     97.5207702320999
20 1 8 -0.75     61.8013767170918    -27.0007035377717     98.8740943860333
21 1 3 0.75     61.9540918227667    -30.5174214082043     99.3411508461436
22 1 8 -0.75     65.0017680096661    -32.9610513425434     100.433099724198
23 1 3 0.75     67.3165330106276     -35.716968666728     100.930065368462
24 1 8 -0.75     68.6039735085002    -38.4670939813463     102.716598556129
25 1 3 0.75     70.6843046677941    -41.5003210667606     104.168625524881
26 1 8 -0.75     71.8306247346468    -45.0549834850817     103.444700450101
27 1 3 0.75      75.382041620623    -44.7231634818109     102.341957653725
28 1 8 -0.75     79.1997205220304    -45.5089854175226     102.440038732531
29 1 3 0.75     81.4741304902383    -45.4139682668399     105.630563333869
30 1 8 -0.75     82.7478869472649    -43.3223734280044     109.047025482514
31 1 3 0.75     81.2357517536333     -40.123304269495     111.175674441273
32 1 8 -0.75     81.1800446336687    -36.2583991611387     112.779959834198
33 1 3 0.75     83.0297287913435    -33.8931643511067     114.726825741805
34 1 8 -0.75     81.4848691522073    -33.7110804168705     118.674555369939
35 1 3 0.75      85.366656450716    -33.2020604818187     119.959546354015
36 1 8 -0.75     88.4619680713105    -31.7538922270765     120.727451710789
37 1 3 0.75     91.8775812265659     -30.418776152115     121.454917164894
38 1 8 -0.75     92.0841635623345    -27.3526878952794     119.329927050441
39 1 3 0.75     93.3738218074253    -24.1307275373075     121.262466243554
40 1 8 -0.75     95.6366336929091    -23.5731095846203     124.210907653623
41 1 3 0.75     95.9820582216604    -21.4936890830348      127.60692370853
42 1 8 -0.75     97.4438654919155    -17.9194452711548     127.769751475068
43 1 3 0.75     99.6829093795253    -17.5181357812448     130.635408207158
44 1 8 -0.75      99.222075365231    -19.8571123077009     133.591692800863
45 1 3 0.75     99.9919023593922    -23.5570101190306     133.149282311679
46 1 8 -0.75     98.9049827102655    -26.8427066476306     132.089370367691
47 1 3 0.75     96.6540406868968    -28.5860691844099     133.955107877347
48 1 8 -0.75     92.8151479787186    -28.5619781109973     134.345627109711
49 1 3 0.75     90.2231909351725    -31.0897619701346     132.743454594126
50 1 8 -0.75     89.9080779336422    -31.9569435853755     128.946715916722
ITEM: TIMESTEP
700000
ITEM: NUMBER OF ATOMS
50
ITEM: BOX BOUNDS pp pp pp
-3.0000000000000000e+02 3.0000000000000000e+02
-3.0000000000000000e+02 3.0000000000000000e+02
-3.0000000000000000e+02 3.0000000000000000e+02
ITEM: ATOMS id mol type q xu yu zu
1 1 3 0.75     36.3953808981041     -28.368705600062       117.8842790439
2 1 8 -0.75     37.8956844030373    -25.0860547039974     117.464985647854
3 1 3 0.75     37.6159699725775    -22.2778463024137     119.920778805848
4 1 8 -0.75     39.9846946203448    -20.3267458217832     122.195920580492
5 1 3 0.75     43.5086599828003    -21.1868285337609     123.162204725069
6 1 8 -0.75     46.7963699796143    -22.7069511210905     122.166370729746
7 1 3 0.75     50.3343531441107    -23.6438567627211     121.927535374649
8 1 8 -0.75     51.1783136646002    -26.8204355479344     123.467289517376
9 1 3 0.75     53.8520854717817    -29.4029969120944     124.817827155411
10 1 8 -0.75     57.3806202315525    -30.8854526524537     125.078244090007
11 1 3 0.75     60.9355279521086    -31.1692793313277     124.283471468983
12 1 8 -0.75     64.2218334310227    -30.9670819349035     122.298938692945
13 1 3 0.75     67.0705926732234    -30.4358922010844     119.760317200134
14 1 8 -0.75     70.6885484751805    -30.6967712939572     120.942563217708
15 1 3 0.75     72.7055721099009    -32.2711461081733     118.036307906603
16 1 8 -0.75     71.8383500825355    -29.6330896901757     115.570303389107
17 1 3 0.75     73.1960076591146    -26.2930186985433     116.870374841834
18 1 8 -0.75     70.9387645537002     -23.950756202027     114.802899543542
19 1 3 0.75     71.1866776464387    -22.9102619788602      110.76265290022
20 1 8 -0.75     73.5267195280645    -24.1328925139686      107.92189698637
21 1 3 0.75     73.3661717279862    -27.3608401573956     106.829728144074
22 1 8 -0.75     75.3924116120396     -30.081129004235      105.02696896651
23 1 3 0.75     74.7766849812524    -32.6417002165912     102.639821348049
24 1 8 -0.75     75.2562311414391    -35.0167227588579     99.3122451918171
25 1 3 0.75     75.7765169407171    -32.1784731833233     96.5491867783936
26 1 8 -0.75      76.292019720036    -33.3426817903965      93.043322466254
27 1 3 0.75     80.1125199700084     -33.478787939084     93.3155748455256
28 1 8 -0.75     82.0055073104353    -34.8060279534889     90.6832903951902
29 1 3 0.75     84.1673777147703    -35.1121490089746     87.2747236861477
30 1 8 -0.75     85.5626882813171     -37.815753935867     85.0329426790072
31 1 3 0.75     89.3503164161453    -38.7230157661895     85.4424657087907
32 1 8 -0.75      91.238004344546    -41.7071685381172     83.1225954280438
33 1 3 0.75     92.8808904010215    -43.8897093625918     80.7172851567753
34 1 8 -0.75     93.4721796996366    -47.4949106531197     80.1905600730977
35 1 3 0.75     93.9990229846511    -51.0575330611438     79.0792981987853
36 1 8 -0.75     92.2697565391913    -54.0051110637732     76.8201912716188
37 1 3 0.75     90.8549829354992    -56.3969512604801     79.4567634064754
38 1 8 -0.75     87.9793356594509    -58.4651114996778     77.8257774217584
39 1 3 0.75     87.6647197158095     -61.851284367855     79.5484351965338
40 1 8 -0.75     83.6976711132525     -61.445728671884     79.7317609689294
41 1 3 0.75     82.0038689232722    -57.8496724517313     80.4270005160294
42 1 8 -0.75     82.6339164837294    -54.4660629046677     82.6436211855685
43 1 3 0.75      79.068429242649    -55.4156762954312     84.5221704420495
44 1 8 -0.75     79.1234213768795    -56.4741343211861     88.4317840288707
45 1 3 0.75     81.9573087686598    -54.8259257769991     89.8778755068239
46 1 8 -0.75     85.5309187389419    -54.6548237786857     91.6234192531706
47 1 3 0.75     86.5828979976583    -50.9274582896163     91.2470720643735
48 1 8 -0.75     85.7956011850906    -47.2791972900317     92.1767235726917
49 1 3 0.75     87.6423204675762    -47.2014435816478     95.5971172514087
50 1 8 -0.75     91.4198638196081    -48.0372197236171     95.6457871590373
ITEM: TIMESTEP
800000
ITEM: NUMBER OF ATOMS
50
ITEM: BOX BOUNDS pp pp pp
-3.0000000000000000e+02 3.0000000000000000e+02
-3.0000000000000000e+02 3.0000000000000000e+02
-3.0000000000000000e+02 3.0000000000000000e+02
ITEM: ATOMS id mol type q xu yu zu
1 1 3 0.75     62.5818270353134    -17.5557871346231     123.647164163275
2 1 8 -0.75      66.140527583443    -16.6832427725299      124.80855609438
3 1 3 0.75     68.7717197804281    -19.3770222541426     124.286509345295
4 1 8 -0.75      69.790628052031    -22.7078178943793     123.018274131406
5 1 3 0.75     68.5301160628232    -24.3311052464815     126.126516812976
6 1 8 -0.75     66.9236301992061    -24.9314654277821     129.445663513604
7 1 3 0.75     65.5755457753947     -21.554041235557     130.554613314955
8 1 8 -0.75     63.8302358980455    -21.5107533879745     134.115749414292
9 1 3 0.75      62.776315238739     -18.614265308796     136.260050589618
10 1 8 -0.75     64.6158106022067    -15.7446951172288     138.103030094912
11 1 3 0.75     67.4999596666763    -16.8854445685696     140.487644730381
12 1 8 -0.75     71.1582326182244    -16.9586731159509     139.826126488161
13 1 3 0.75     73.0631257809155    -19.3766562240789     137.548870524247
14 1 8 -0.75      75.837568116916    -19.8904994035387     134.774216494993
15 1 3 0.75     79.4405644472975    -19.1737575939946     134.298523058509
16 1 8 -0.75     82.7854060606154    -20.1815073575357     135.180796459205
17 1 3 0.75     84.7032498870117    -19.5099152052815     132.173600054211
18 1 8 -0.75     86.9411080349414    -16.4679278163537     132.766274285905
19 1 3 0.75     84.7558990892276    -13.6412886826131     134.002765492547
20 1 8 -0.75     82.1733536242672    -11.2669164109701     135.052450023111
21 1 3 0.75     81.4225694102305    -8.31923873438938       137.5072260767