ITEM: TIMESTEP
0
ITEM: NUMBER OF ATOMS
93
ITEM: BOX BOUNDS pp pp pp
-3.0000000000000000e+02 3.0000000000000000e+02
-3.0000000000000000e+02 3.0000000000000000e+02
-3.0000000000000000e+02 3.0000000000000000e+02
ITEM: ATOMS id mol type q xu yu zu
1 1 1 0                    6                    0                    0
2 1 8 -0.75                   12                    0                    0
3 1 8 -0.75                   18                    0                    0
4 1 18 0                   24                    0                    0
5 1 12 0                   30                    0                    0
6 1 15 0                   36                    0                    0
7 1 7 -0.75                   42                    0                    0
8 1 18 0                   48                    0                    0
9 1 15 0                   54                    0                    0
10 1 10 0                   60                    0                    0
11 1 8 -0.75                   66                    0                    0
12 1 18 0                   72                    0                    0
13 1 18 0                   78                    0                    0
14 1 11 0                   84                    0                    0
15 1 15 0                   90                    0                    0
16 1 12 0                   96                    0                    0
17 1 8 -0.75                  102                    0                    0
18 1 4 0                  108                    0                    0
19 1 14 0                  114                    0                    0
20 1 15 0                  120                    0                    0
21 1 7 -0.75                  126                    0                    0
22 1 11 0                  132                    0                    0
23 1 13 0                  138                    0                    0
24 1 3 0.75                  144                    0                    0
25 1 11 0                  150                    0                    0
26 1 11 0                  156                    0                    0
27 1 18 0                  162                    0                    0
28 1 8 -0.75                  168                    0                    0
29 1 17 0                  174                    0                    0
30 1 17 0                  180                    0                    0
31 1 10 0                  186                    0                    0
32 1 11 0                  192                    0                    0
33 1 15 0                  198                    0                    0
34 1 18 0                  204                    0                    0
35 1 11 0                  210                    0                    0
36 1 18 0                  216                    0                    0
37 1 15 0                  222                    0                    0
38 1 12 0                  228                    0                    0
39 1 6 0                  234                    0                    0
40 1 1 0                  240                    0                    0
41 1 7 -0.75                  246                    0                    0
42 1 7 -0.75                  252                    0                    0
43 1 11 0                  258                    0                    0
44 1 1 0                  264                    0                    0
45 1 11 0                  270                    0                    0
46 1 15 0                  276                    0                    0
47 1 18 0                  282                    0                    0
48 1 7 -0.75                  288                    0                    0
49 1 7 -0.75                  294                    0                    0
50 1 20 0                  300                    0                    0
51 1 8 -0.75                  300                    6                    0
52 1 12 0                  300                   12                    0
53 1 13 0                  300                   18                    0
54 1 14 0                  300                   24                    0
55 1 4 0                  300                   30                    0
56 1 8 -0.75                  300                   36                    0
57 1 7 -0.75                  300                   42                    0
58 1 18 0                  300                   48                    0
59 1 2 0                  300                   54                    0
60 1 18 0                  300                   60                    0
61 1 7 -0.75                  300                   66                    0
62 1 8 -0.75                  300                   72                    0
63 1 6 0                  300                   78                    0
64 1 18 0                  300                   84                    0
65 1 5 0.75                  300                   90                    0
66 1 1 0                  300                   96                    0
67 1 18 0                  300                  102                    0
68 1 8 -0.75                  300                  108                    0
69 1 6 0                  300                  114                    0
70 1 6 0                  300                  120                    0
71 1 18 0                  300                  126                    0
72 1 18 0                  300                  132                    0
73 1 10 0                  300                  138                    0
74 1 6 0                  300                  144                    0
75 1 18 0                  300                  150                    0
76 1 6 0                  300                  156                    0
77 1 18 0                  300                  162                    0
78 1 6 0                  300                  168                    0
79 1 6 0                  300                  174                    0
80 1 18 0                  300                  180                    0
81 1 4 0                  300                  186                    0
82 1 18 0                  300                  192                    0
83 1 6 0                  300                  198                    0
84 1 6 0                  300                  204                    0
85 1 18 0                  300                  210                    0
86 1 6 0                  300                  216                    0
87 1 18 0                  300                  222                    0
88 1 6 0                  300                  228                    0
89 1 18 0                  300                  234                    0
90 1 15 0                  300                  240                    0
91 1 13 0                  300                  246                    0
92 1 18 0                  300                  252                    0
93 1 11 0                  300                  258                    0
ITEM: TIMESTEP
100000
ITEM: NUMBER OF ATOMS
93
ITEM: BOX BOUNDS pp pp pp
-3.0000000000000000e+02 3.0000000000000000e+02
-3.0000000000000000e+02 3.0000000000000000e+02
-3.0000000000000000e+02 3.0000000000000000e+02
ITEM: ATOMS id mol type q xu yu zu
1 1 1 0     239.862075120199     14.4031146217061      47.726802743218
2 1 8 -0.75     236.451562029671     16.0960902818382     46.2301336700767
3 1 8 -0.75     233.336394611647     18.0693819359188     47.7126864762089
4 1 18 0     230.430732750412     19.4315323391701     49.5950832102643
5 1 12 0     229.936370257182     23.1367347169657     49.2196294474423
6 1 15 0     228.011915761955      24.439234587569     46.0703157369837
7 1 7 -0.75     228.177630569537     23.3748772615748     42.4451237725428
8 1 18 0     227.756241527004     22.2092877132492     38.6980069226661
9 1 15 0     224.567769341938     24.2369088993512     38.0016906202542
10 1 10 0     223.709685355966     28.2080057793993     37.5783579660721
11 1 8 -0.75      222.51223996905     29.2787030832212      34.348046861237
12 1 18 0     222.749098094598     31.4308075104848     31.3180347136607
13 1 18 0     224.270925726761      33.356974102292     27.9957446892819
14 1 11 0     224.725221022358      32.669679110455     24.1883331134553
15 1 15 0     224.870391809014     30.2060643050957     21.1371829067124
16 1 12 0     225.027261194957     29.2118700927399     17.6636711746344
17 1 8 -0.75     228.558987884435     27.9942424205421     17.1679449594161
18 1 4 0     231.169061027113       29.87312348465     15.3411221094135
19 1 14 0     231.032127795289      29.701229965884     11.5562848923531
20 1 15 0     232.003234081171     33.1330976707652     10.2337161168434
21 1 7 -0.75     229.371131191297     36.1818709431442     9.55398420728225
22 1 11 0      226.02018680593     36.2460497758084     7.76211077511444
23 1 13 0     226.357533154234     38.9582445495435     4.98958503914311
24 1 3 0.75     228.089557263297     41.4092921243428     7.47535679392573
25 1 11 0     229.564651546706     43.5710261253666     9.95055042573131
26 1 11 0     231.429532728378     46.9336608246807     8.92906663518708
27 1 18 0     230.770026212875     50.8619613221394     9.00371494723128
28 1 8 -0.75      230.96301546115     54.6219321105527     7.56536017520613
29 1 17 0     229.879963476826     55.4854192368509      3.9938538721555
30 1 17 0     227.001861407623     55.7095681239339      1.2930799842644
31 1 10 0     228.434230015177     54.6003994374331    -2.11449530987026
32 1 11 0     231.938313949797     54.1129660657957    -1.75264732082215
33 1 15 0     233.574406732038     54.0298852197964    -5.38087364670916
34 1 18 0      233.40566669878      53.272683826008    -9.18589599112929
35 1 11 0     235.625689564657      50.113449759368    -9.34680661675369
36 1 18 0     239.304007639509     49.7268987085661    -10.7225893295425
37 1 15 0     241.979796734172     50.1043769984866    -13.3888179737968
38 1 12 0     244.023223854617       48.58396983994    -16.2330441571597
39 1 6 0     245.736328298179     46.4733010244446    -18.7991089688655
40 1 1 0     246.348182665015     42.6552837117501    -19.5284980299575
41 1 7 -0.75     249.057890280386     40.8062248311529    -21.4312430202949
42 1 7 -0.75     246.966055452693     37.1584518482407    -21.5643967822413
43 1 11 0     244.839406965285     34.1909474411449    -20.1712508399639
44 1 1 0     244.825050258387     34.9855628851328    -16.3511198686738
45 1 11 0     247.407711616311     35.8297297998025    -13.3039080516818
46 1 15 0     245.140903466261     35.2059031581277    -10.2158469354088
47 1 18 0     243.149610458141     38.3748567092687     -8.8784008190448
48 1 7 -0.75     242.845411000774      40.071572518141    -5.48600673614712
49 1 7 -0.75     244.177186334628     41.5727799703891    -2.14451077025725
50 1 20 0     246.847655189543     40.1611436980946    0.287144759821638
51 1 8 -0.75     249.582354519264     42.0971870320125     -1.4406004759872
52 1 12 0     249.920826666755     45.6441774348853    -3.25506945810334
53 1 13 0     247.981637957632     48.4604103507406    -1.34248537643624
54 1 14 0     249.974605785024     52.0026386573617    -1.31798827322518
55 1 4 0     250.292133925225     53.9634251690694       2.054561338058
56 1 8 -0.75     251.354111085401     57.8231319996426     2.86304427472468
57 1 7 -0.75     253.288604716175     57.1179435766841     5.88879396627866
58 1 18 0     253.687432993967     55.2289459122226     9.35495002975319
59 1 2 0     250.719037564971     54.4542727441708      11.407977891418
60 1 18 0     247.649039695109     54.5528329089666     13.9149798518055
61 1 7 -0.75     245.404469680213     52.7738165831611     16.6337624230651
62 1 8 -0.75     245.037273608202     50.3519802316855     19.4647298942822
63 1 6 0     241.382092822486     50.3874544662933     20.9940430167988
64 1 18 0     237.804932719665     50.9751695975994     22.0817641977908
65 1 5 0.75     235.217837118285     54.0704032595612     23.0463421042122
66 1 1 0     234.510061331041     58.2221115864701      23.069686739986
67 1 18 0     235.472416687584     61.7805751707841     24.1155337783968
68 1 8 -0.75     238.984430597059     61.2987706034484     25.6226997006037
69 1 6 0     240.222642349146     57.2671010507486     25.4354674040464
70 1 6 0     243.258505266079      59.330130022395      23.841328044734
71 1 18 0     247.179928117011     58.9606337329777     23.7158832598875
72 1 18 0     250.133473175413     58.8018782560204     26.4732720550294
73 1 10 0      252.70033339372     57.9061654771725     28.9715723562488
74 1 6 0     256.319219174082      60.104574876115      30.201965861098
75 1 18 0     259.582684027687      58.345036785936     29.0235645783996
76 1 6 0     259.633190960522      56.225257270075     32.8192956709955
77 1 18 0     258.369921307953      55.287887819194     36.2453390710033
78 1 6 0     256.639081411342     54.6441421011564     39.5482427390356
79 1 6 0     253.523278617624     52.1406872867197     40.5345784049638
80 1 18 0     251.895402186269     49.2295117238596     41.8699088350494
81 1 4 0     251.750215705232       50.05592432326     45.5498463152087
82 1 18 0     252.267880327898     51.4051098971236     49.3592051426175
83 1 6 0     250.672355444722     48.3835319915127     51.3267981175698
84 1 6 0      248.54078263444     47.1104808097317       54.48130499189
85 1 18 0      249.80952352461     45.9629570891831     58.0345055673776
86 1 6 0     253.309319827437     45.0052735614715     59.9276975993151
87 1 18 0     252.640597831872     43.0380646862641     63.3405547100508
88 1 6 0     256.591487601394     43.8061697098873     63.7078855359556
89 1 18 0     260.296600466406     43.8237263184778     62.5343800770944
90 1 15 0     260.485927171126     45.3080146064012     58.7116403093706
91 1 13 0     260.217456879056      47.368574809579     55.4361565537644
92 1 18 0     258.170579660368     50.5896176718203     55.2222789256795
93 1 11 0     257.075588694588       54.21129498896      56.005338649128
ITEM: TIMESTEP
200000
ITEM: NUMBER OF ATOMS
93
ITEM: BOX BOUNDS pp pp pp
-3.0000000000000000e+02 3.0000000000000000e+02
-3.0000000000000000e+02 3.0000000000000000e+02
-3.0000000000000000e+02 3.0000000000000000e+02
ITEM: ATOMS id mol type q xu yu zu
1 1 1 0     189.842459078503     58.8625802881306     20.9362501164897
2 1 8 -0.75     193.399927554254     58.6963346100933     19.7600089949432
3 1 8 -0.75     193.118446265899     61.3063330983451     16.8964067295306
4 1 18 0     193.175562188811     62.5130163898948       13.03556567389
5 1 12 0     197.076630907078     63.6968011286124     12.7064317145559
6 1 15 0     200.344701076255     61.9808390059604     11.3075428922319
7 1 7 -0.75     203.869175318516     60.6393106180627     11.0609870389366
8 1 18 0     207.662921280652     60.1757488292622      11.353667866565
9 1 15 0     208.895860143122     61.8048321494057     14.6854891471625
10 1 10 0     211.117246860661     64.9842769224874     16.0331763292761
11 1 8 -0.75     214.762807319961     63.2316478246061      16.122792375131
12 1 18 0     218.534631014166     61.3628931142235     16.8035218732217
13 1 18 0     220.292762639325     60.3069336626463     20.3883937493792
14 1 11 0     221.647477651862     60.7741437889572     23.9707531679621
15 1 15 0     221.816238198746     58.3058674470289     26.6819277725497
16 1 12 0     224.954617921974     56.5257251886355     26.7210498622155
17 1 8 -0.75     225.687587497085     53.1194071760551     25.6518349605003
18 1 4 0      223.45820890537     51.0461489500019     23.2266222336352
19 1 14 0     221.366579349668      51.028134281235     20.1927543504664
20 1 15 0     218.735440863933     48.5519387087191     20.4913600303732
21 1 7 -0.75     219.078079911857     44.9987628877295     20.0437444196114
22 1 11 0     222.262223531901     43.3857423160895     18.7864075518669
23 1 13 0     221.584146121411     42.0997700075288     15.2733696441667
24 1 3 0.75     219.317631834734     39.2625343085607     14.8956886555306
25 1 11 0     217.337167611337     36.0602595265595     14.0619132692135
26 1 11 0     218.330562237793     33.7903466140006     10.9510571123889
27 1 18 0     220.056887177866     34.2503632809368     7.56713333943122
28 1 8 -0.75     223.221781589369     36.1283865959519     6.50931558615213
29 1 17 0     225.920907257102     38.7335815691307      8.1652343523115
30 1 17 0     228.900128239707     40.2751013190178     9.53609899866028
31 1 10 0     229.639464916618     44.0197504229525     9.41741769322119
32 1 11 0      230.60426519809     46.1092338412307     12.3823471493583
33 1 15 0     232.526549593348     44.0170547786811     14.8997510385638
34 1 18 0      233.16021390152     40.1708840682014     16.0405178143001
35 1 11 0     236.184304233101     40.3494134153994     18.6501417181316
36 1 18 0     237.992414558358     39.8315839099564     21.8552625339943
37 1 15 0     237.628928260055     37.5308786696461     25.1950071838966
38 1 12 0       235.8268684587     35.6464875710494     27.4757129159186
39 1 6 0     232.274787326803     35.9851004219227     29.2409272624071
40 1 1 0     229.488577472328     33.2329063093738     30.3405670387569
41 1 7 -0.75      226.68503153499     34.8176321631047     32.0562346323119
42 1 7 -0.75     224.651764326642     31.8802620193531     33.6806393082506
43 1 11 0     227.189383279468     31.0372040121791     36.6278371227971
44 1 1 0     225.147991468022       31.43650623221     39.8334266848402
45 1 11 0     221.587553117859     31.6567437068678      41.093653291677
46 1 15 0     217.922683301325     30.6825893363086     41.4465195644081
47 1 18 0     214.152253044751     29.8448356826175     42.3501537750092
48 1 7 -0.75      213.21181424713     26.1507675725483     42.8443294032486
49 1 7 -0.75     213.439105175599     22.4616537757073     44.3560605218978
50 1 20 0     215.789621423781     19.3898804762694      46.226989132149
51 1 8 -0.75     218.539256256732     22.3112531202633     46.2869666945261
52 1 12 0     219.364204828373      23.554312883621     49.8328704747816
53 1 13 0     219.139985762459     24.7875235059408     53.3369481015795
54 1 14 0     217.570421470863     23.3896246184298     56.3459587460933
55 1 4 0     220.004212338144     22.6372599168649     59.3805854280402
56 1 8 -0.75      222.23189940492      20.878013536928     62.4832193611374
57 1 7 -0.75     224.631233329973     21.1196470896873     65.8269614754175
58 1 18 0     225.288957506817     22.0279781459955     69.2570665695334
59 1 2 0      223.61730996689     23.3438540248192      72.360424314802
60 1 18 0     222.087575867821     22.8454515268543     75.8747371544925
61 1 7 -0.75     218.652284222469     23.6380216635741     74.2168938123171
62 1 8 -0.75      215.22000901561     24.2150029861331     75.5072042657221
63 1 6 0     214.628592776488     23.4240545734876     78.9878703732072
64 1 18 0     215.299957278698     23.7414921438235     82.6513208977952
65 1 5 0.75     218.332971115743     22.2364820407155     84.6608553459724
66 1 1 0     221.462018528164      21.680907600276     86.7059218230556
67 1 18 0     225.200434965123     22.1845538744874     88.2938423531594
68 1 8 -0.75     229.222108851962      21.736189165994     87.8345270777264
69 1 6 0     232.592709654042     21.5609648003201     89.5728752654162
70 1 6 0     233.139253602369     19.1397866981838      92.489621487697
71 1 18 0     233.653830135633     17.2297082962175     95.7532802924703
72 1 18 0     235.174762795671     14.5477318976682     98.7463248238981
73 1 10 0     235.997828934291     14.5940675385964     102.373247479909
74 1 6 0     238.065119352254     14.2702894953853     105.401926527637
75 1 18 0     237.507212732496      15.547903212278     108.962299835711
76 1 6 0     240.157723615147     13.4945159381024     110.515814759282
77 1 18 0     242.705355347857     10.9104770256618     111.450987429332
78 1 6 0     245.050281650763     13.6352987928331     112.108390767957
79 1 6 0     247.679666790007     16.2545436616198     113.135873233019
80 1 18 0     251.218044977145     17.4717129892019     112.762053561948
81 1 4 0     253.989854485556      18.419987625539     110.246948111609
82 1 18 0     255.966239860745     16.7041391787435     107.409537438143
83 1 6 0     255.494145959925      16.388627370736     103.777390498008
84 1 6 0      257.52183644076     17.5130159478236     100.547622197239
85 1 18 0     260.994271997233     18.8253678586729     99.9998959842811
86 1 6 0     263.475731939421     18.8060998821018     96.9795180239735
87 1 18 0     262.670916778549     17.2838332384782     93.4030793419747
88 1 6 0      261.17242650299     16.1217441608949     90.3487768549361
89 1 18 0     258.660891543472     13.4929456525959     88.6300892993246
90 1 15 0     257.232530026845     14.8749715553889     85.1453529315652
91 1 13 0      257.13636076216     16.5585767224399     81.4109837002654
92 1 18 0     253.564274356255     17.7357118500741      80.114725769485
93 1 11 0     251.650497870707     20.3993654077784     82.1190059240138
ITEM: TIMESTEP
300000
ITEM: NUMBER OF ATOMS
93
ITEM: BOX BOUNDS pp pp pp
-3.0000000000000000e+02 3.0000000000000000e+02
-3.0000000000000000e+02 3.0000000000000000e+02
-3.0000000000000000e+02 3.0000000000000000e+02
ITEM: ATOMS id mol type q xu yu zu
1 1 1 0     186.113418382429     53.1435540613376     18.0289420785138
2 1 8 -0.75     185.280751934956     50.4043226280201     15.4728237404457
3 1 8 -0.75     187.073497103774     47.1530945131394     15.4620714688486
4 1 18 0      187.48216269849     43.4355874638909     16.9944327303638
5 1 12 0     184.026064553731     42.7727200296662     18.4241881583704
6 1 15 0     180.242906671554     42.0402338477002     18.7008675810493
7 1 7 -0.75     177.034940461688     43.2956778609503     19.8300382015917
8 1 18 0     173.719952766069     44.7359132175635     21.0130713977446
9 1 15 0     171.555041683616     41.7878654219089      20.110062909892
10 1 10 0     171.514496461537     38.1339884800228      20.336476089799
11 1 8 -0.75     169.086082633866     35.8614967649607     18.0240333305336
12 1 18 0     166.444797287929     35.9431982470722     14.9888428363411
13 1 18 0     164.329141179302     38.1462675191789     12.3990138214014
14 1 11 0      160.60934272715     38.1587105660668     12.2010654480897
15 1 15 0     156.969069316118     37.4031823126455     12.1158642283092
16 1 12 0     153.822589403708     36.3644826767789     10.4664785687134
17 1 8 -0.75     151.464929983388     39.0229324378938     12.1597947342926
18 1 4 0      151.76919488254     40.8993689488713     15.3361692644681
19 1 14 0     151.638180768735     42.8603061350337     18.2577686370785
20 1 15 0     152.916067214927      46.366588736664     18.6581782183098
21 1 7 -0.75     154.279411934069     49.9279172687082     19.6988939843289
22 1 11 0      155.52016350338     53.4381384116103     20.7262706105835
23 1 13 0     156.776827202841     56.5288220800621     22.2179818733222
24 1 3 0.75     159.152463579385     59.4705737484656      22.641586650777
25 1 11 0     160.856500981194     62.7985711668947     23.5207224533598
26 1 11 0     164.036884135473     61.9258125353411     26.2314598796218
27 1 18 0     165.000124014035     62.7293918806568     29.8435838593823
28 1 8 -0.75      163.85289637382     60.4565254965143     33.0315892449735
29 1 17 0     160.484885298117     59.9010832238439     34.8409937044342
30 1 17 0     156.780379301032      59.214404486409     35.5712205846219
31 1 10 0     153.618256782204     57.3991409888014     34.9762385092736
32 1 11 0     150.464679628549     56.9591025355921      37.154160162449
33 1 15 0     148.468892429443     55.1309681242966     40.2390359295473
34 1 18 0     147.582083196636       52.48029564939     42.8160394745419
35 1 11 0     146.985596757382     48.8786059688197     44.3127495582816
36 1 18 0     149.213368583899     45.8996910885701     45.3192204704967
37 1 15 0     152.212698208286     46.4659475396709     42.8018670357451
38 1 12 0     153.712309748388     48.6687418649909     39.7356597186757
39 1 6 0     151.364025918188     47.6573047748746     36.8536521172175
40 1 1 0     150.300398787081     43.9612790504233     35.8483721318926
41 1 7 -0.75      150.06974117556     40.9519605200345     38.2337829417855
42 1 7 -0.75      150.85643477164     37.4056512091652     37.4546640874991
43 1 11 0      152.46280453744     36.1550467254013     40.9075785073515
44 1 1 0     153.995547542537     33.0269453796005     42.5940028121935
45 1 11 0     152.181095718335     29.8670359308909     41.4158359793419
46 1 15 0     152.485264757086     28.6349946802915      45.149756725434
47 1 18 0     150.861109551174     27.0113262963281      48.373183286504
48 1 7 -0.75     149.767660898886     30.2133722208529     50.2478654622008
49 1 7 -0.75     148.456886509728     33.6506531620755     48.9137171125888
50 1 20 0      152.07844215527     35.0334106326301     48.7386961819054
51 1 8 -0.75     154.798980514293     34.1966427212017     51.0700893771272
52 1 12 0     157.851703639742     36.7184741050663     50.3031607856541
53 1 13 0     160.641413062142     34.1356995459763     48.9739656646918
54 1 14 0     159.856592620118     32.0912460949064     45.7715094102592
55 1 4 0     162.358962004844     29.5592443159663     44.2770318740162
56 1 8 -0.75      161.77182445195     27.5393940861538     41.2064870104626
57 1 7 -0.75     165.127215778612     26.3150902351958     39.9027256633631
58 1 18 0      167.94352157848     26.0809765099519     37.1316395037499
59 1 2 0     170.631791367619     23.4334045075824     38.5399362483222
60 1 18 0     174.256265638636     22.4339923603683     39.1918725955414
61 1 7 -0.75     175.619943506879     24.3177957542025     42.2992094012526
62 1 8 -0.75     177.783828297837     25.1014924153231      45.288934168984
63 1 6 0     177.737927741891     26.8832630133632     48.6369803269909
64 1 18 0     179.682057837565      27.380786226085     52.1667518474674
65 1 5 0.75     178.110864208444      26.610945488879     55.6585798070918
66 1 1 0     176.684153056383     26.7873252212891     59.3251336425331
67 1 18 0     174.638989921423     27.9600077701156     62.2652294132692
68 1 8 -0.75     173.134136810569     28.7726718065157     65.7045323861959
69 1 6 0       170.3290057361     31.6444412268301     67.0515835013255
70 1 6 0     166.988463616798     29.8768357429299     68.2159483866442
71 1 18 0     163.771717536638     30.6479435894991     66.3342510594599
72 1 18 0     161.980034442953     33.7376858891293     68.3459977763011
73 1 10 0     161.863228672416     36.8131778322682     70.5782331513435
74 1 6 0     161.107694737714     36.0746629116747     74.3432466336354
75 1 18 0     159.032516362587     36.6162196021782     77.7510149734802
76 1 6 0     159.240099879472     40.4124384010193      76.822859378149
77 1 18 0     160.852994419523     43.4136110143171     74.6726309223494
78 1 6 0     164.119038249893     44.9014406084382      76.107905173239
79 1 6 0     167.193650796403     42.5212491413941     76.6389587413263
80 1 18 0     170.779099418383     41.3028710418789     75.3442608761611
81 1 4 0     173.435772591151     39.1031671562703     77.6021351746077
82 1 18 0     174.434905989038     35.5651383057831     76.1583507579243
83 1 6 0     173.618241809991     34.1407646933269     79.5626134610729
84 1 6 0     171.132893064988     32.0050420673148     81.5396855163505
85 1 18 0     170.096624452298      28.455955323388     81.6473910350252
86 1 6 0     174.188459306245      27.714022125065     81.5606026393228
87 1 18 0     177.850387475828     26.8812213564135      82.732015832743
88 1 6 0     179.998213119597     29.3958060510782     80.7623694383776
89 1 18 0     180.395912321595     33.1465776029834     79.7212153441798
90 1 15 0     181.315247039228     34.2426778312403       83.83287949518
91 1 13 0     181.990763802763     35.6609139664933      87.201999546351
92 1 18 0     184.286746246466      36.600180472815     90.4011664747679
93 1 11 0      187.36453843091     36.6754717076572     92.4228934819786
ITEM: TIMESTEP
400000
ITEM: NUMBER OF ATOMS
93
ITEM: BOX BOUNDS pp pp pp
-3.0000000000000000e+02 3.0000000000000000e+02
-3.0000000000000000e+02 3.0000000000000000e+02
-3.0000000000000000e+02 3.0000000000000000e+02
ITEM: ATOMS id mol type q xu yu zu
1 1 1 0     190.342676681056     82.5572067954968     26.7738941535887
2 1 8 -0.75     192.302982627012      82.376709788999     29.7646150225228
3 1 8 -0.75     190.384656040547     82.7784205953455     33.0579084021234
4 1 18 0      188.74062589337      82.045670093071     36.9122613866532
5 1 12 0     185.177845481489     82.7251160884722     38.4133424424474
6 1 15 0     181.839697111336     84.6181456916661      39.328154597607
7 1 7 -0.75      178.22320057002     84.2328088746065     40.9133934910005
8 1 18 0     174.942411763187     81.9199513229687      41.182593629313
9 1 15 0     174.433278264598     77.9244814362755     40.6734346822966
10 1 10 0     174.609600781676      74.221638328561     41.2387109341543
11 1 8 -0.75     177.397496101778     72.3210329832453     43.1050259870762
12 1 18 0      179.13600005375     69.9290545930366     45.7761249774204
13 1 18 0     178.545275637185     67.8310464853891     48.6415388050078
14 1 11 0     180.504764445759     64.9477424274989     50.2846237545444
15 1 15 0     184.204398844864     64.4026339477562     50.1845880789923
16 1 12 0     186.278490393949     61.7735921234441     51.9909862597239
17 1 8 -0.75     188.619626448054     59.0369942166801     52.8182721375628
18 1 4 0     189.425336683176     55.3725975514532     51.2996361928742
19 1 14 0     190.606463805176     55.2994233570979     47.7767535552075
20 1 15 0     194.046169511687     56.7714094398091     46.5079718878502