ITEM: TIMESTEP
0
ITEM: NUMBER OF ATOMS
83
ITEM: BOX BOUNDS pp pp pp
-3.0000000000000000e+02 3.0000000000000000e+02
-3.0000000000000000e+02 3.0000000000000000e+02
-3.0000000000000000e+02 3.0000000000000000e+02
ITEM: ATOMS id mol type q xu yu zu
1 1 2 0                    6                    0                    0
2 1 6 0                   12                    0                    0
3 1 15 0                   18                    0                    0
4 1 6 0                   24                    0                    0
5 1 15 0                   30                    0                    0
6 1 15 0                   36                    0                    0
7 1 15 0                   42                    0                    0
8 1 18 0                   48                    0                    0
9 1 15 0                   54                    0                    0
10 1 18 0                   60                    0                    0
11 1 15 0                   66                    0                    0
12 1 4 0                   72                    0                    0
13 1 18 0                   78                    0                    0
14 1 4 0                   84                    0                    0
15 1 3 0.75                   90                    0                    0
16 1 15 0                   96                    0                    0
17 1 2 0                  102                    0                    0
18 1 3 0.75                  108                    0                    0
19 1 1 0                  114                    0                    0
20 1 5 0.75                  120                    0                    0
21 1 15 0                  126                    0                    0
22 1 5 0.75                  132                    0                    0
23 1 15 0                  138                    0                    0
24 1 15 0                  144                    0                    0
25 1 15 0                  150                    0                    0
26 1 18 0                  156                    0                    0
27 1 10 0                  162                    0                    0
28 1 5 0.75                  168                    0                    0
29 1 18 0                  174                    0                    0
30 1 3 0.75                  180                    0                    0
31 1 6 0                  186                    0                    0
32 1 9 0                  192                    0                    0
33 1 4 0                  198                    0                    0
34 1 18 0                  204                    0                    0
35 1 15 0                  210                    0                    0
36 1 18 0                  216                    0                    0
37 1 5 0.75                  222                    0                    0
38 1 15 0                  228                    0                    0
39 1 18 0                  234                    0                    0
40 1 17 0                  240                    0                    0
41 1 9 0                  246                    0                    0
42 1 16 0.375                  252                    0                    0
43 1 5 0.75                  258                    0                    0
44 1 14 0                  264                    0                    0
45 1 6 0                  270                    0                    0
46 1 11 0                  276                    0                    0
47 1 7 -0.75                  282                    0                    0
48 1 15 0                  288                    0                    0
49 1 18 0                  294                    0                    0
50 1 18 0                  300                    0                    0
51 1 12 0                  300                    6                    0
52 1 15 0                  300                   12                    0
53 1 18 0                  300                   18                    0
54 1 5 0.75                  300                   24                    0
55 1 5 0.75                  300                   30                    0
56 1 15 0                  300                   36                    0
57 1 15 0                  300                   42                    0
58 1 17 0                  300                   48                    0
59 1 15 0                  300                   54                    0
60 1 15 0                  300                   60                    0
61 1 20 0                  300                   66                    0
62 1 4 0                  300                   72                    0
63 1 3 0.75                  300                   78                    0
64 1 3 0.75                  300                   84                    0
65 1 2 0                  300                   90                    0
66 1 15 0                  300                   96                    0
67 1 5 0.75                  300                  102                    0
68 1 5 0.75                  300                  108                    0
69 1 15 0                  300                  114                    0
70 1 15 0                  300                  120                    0
71 1 2 0                  300                  126                    0
72 1 15 0                  300                  132                    0
73 1 15 0                  300                  138                    0
74 1 18 0                  300                  144                    0
75 1 4 0                  300                  150                    0
76 1 5 0.75                  300                  156                    0
77 1 16 0.375                  300                  162                    0
78 1 4 0                  300                  168                    0
79 1 4 0                  300                  174                    0
80 1 5 0.75                  300                  180                    0
81 1 10 0                  300                  186                    0
82 1 19 0                  300                  192                    0
83 1 10 0                  300                  198                    0
ITEM: TIMESTEP
100000
ITEM: NUMBER OF ATOMS
83
ITEM: BOX BOUNDS pp pp pp
-3.0000000000000000e+02 3.0000000000000000e+02
-3.0000000000000000e+02 3.0000000000000000e+02
-3.0000000000000000e+02 3.0000000000000000e+02
ITEM: ATOMS id mol type q xu yu zu
1 1 2 0     185.402912419744      24.163361151094     14.0904201502314
2 1 6 0     183.894865965691     26.1587460002207     16.9889479670612
3 1 15 0     183.377853967857     30.2834639055166      16.715779846838
4 1 6 0     187.180249648761     31.5917173422109     15.8668098025842
5 1 15 0     189.592571346895     33.1084945798223     13.5238009309758
6 1 15 0     188.644742543023     36.8809765357852     14.1989485872584
7 1 15 0     188.691991892523     36.9789761737609     17.8721608113028
8 1 18 0      187.58723326225     40.1934535776375     19.5721288690409
9 1 15 0     187.551803658885     42.4613978269146     22.3555419366101
10 1 18 0     186.601777118015     46.2678312097201     22.8903659130613
11 1 15 0     186.568183473929      47.319368188171     19.3676913517652
12 1 4 0     184.880651326393     47.7522218384493     16.0120548272505
13 1 18 0     183.645487132662     48.8823493423165     12.7125280959334
14 1 4 0     184.028039446733     51.0669930925873     9.55653004717709
15 1 3 0.75     184.948352555745     51.8992306509408     5.96098971485064
16 1 15 0     184.773252381178     55.7713746341359     5.12550686264098
17 1 2 0     187.075884601212     57.4902909457517     7.62264351773629
18 1 3 0.75     188.129134467517     55.7267686559218     11.4792927127689
19 1 1 0     190.185070902888      52.632513628387     10.3120348671254
20 1 5 0.75     192.979628830091     50.1669848395075     10.9110995776185
21 1 15 0     196.148863231428     51.3204663523849     9.40588729226029
22 1 5 0.75     198.063160406427     54.7438704105674     8.83400581805489
23 1 15 0     198.364817133042     58.4635302670527      9.8875549173886
24 1 15 0     197.428369154591     59.9144862880571     13.2161934564548
25 1 15 0     194.477568053493     58.3320687667307     14.7740570362241
26 1 18 0     192.271084313444     55.6176972264207     16.2512824877473
27 1 10 0      191.69225942224     51.9857270237948     17.5662450093092
28 1 5 0.75     193.518950326244     49.0317655635604     18.8858154792383
29 1 18 0     195.913954157464     46.5474629642335     20.7610443889864
30 1 3 0.75     199.224153419781     46.3156179772353     19.1907189385961
31 1 6 0     199.225981729811     46.2711489803192     15.6198307543199
32 1 9 0       200.8727781783     48.5388783430137     12.7296723614238
33 1 4 0     202.651959675076     46.2616553635582     10.1648243456554
34 1 18 0     204.422972587213     47.1788455292307     6.58327955831824
35 1 15 0     201.442420462877     47.5992350885845     4.04694280778887
36 1 18 0     201.950468135022     51.1932866106649     2.01226395339016
37 1 5 0.75     204.656815441793     51.4672277385532     -0.8590064272832
38 1 15 0     206.299901937762      49.810859642112    -3.80144828989951
39 1 18 0     208.241277780264     51.9672304206464    -6.30771928597929
40 1 17 0     209.164123654113     55.3823911877031    -5.58422586650314
41 1 9 0      210.86913634212     58.7469774937316    -6.10421654122757
42 1 16 0.375     210.488618083616     61.0864789206116    -8.62067065797521
43 1 5 0.75     208.569329784292     63.0844858584659    -11.0449325064578
44 1 14 0     207.600401113347     64.1824239534791    -14.4821055345296
45 1 6 0     211.042265966186     64.1510714956566    -16.3491466707994
46 1 11 0     212.465366693976      65.279065355505    -19.4893200685993
47 1 7 -0.75     211.681120227921     62.1752821893922    -21.1428501610776
48 1 15 0      208.39507354961     60.2756964444396     -21.591164469242
49 1 18 0     207.381219600233     56.9547486129756    -19.6258900813571
50 1 18 0     210.140278877795     54.4969252344151    -19.2694094732392
51 1 12 0      209.99583403235     52.4675345433968    -22.5980599645195
52 1 15 0     210.525278731683     48.4582191061325    -23.1804937680798
53 1 18 0     213.867707161098      46.857335181781    -21.9981564049412
54 1 5 0.75     216.473238499336      45.829672899316     -19.236291800765
55 1 5 0.75     218.948625328884     47.7515961025805    -16.7872285439799
56 1 15 0     220.802457166498     48.5734561281002    -13.4524468441676
57 1 15 0     219.201650725066     48.7507578859915    -9.64650123123669
58 1 17 0     220.216547101771     47.8999064112287    -5.89167175785173
59 1 15 0      222.99345041266     50.3461821727506     -5.6048058676449
60 1 15 0     220.821354254426     53.6420246279001    -6.49790946808405
61 1 20 0     222.024141367965     55.3815976625207    -3.25180444972052
62 1 4 0     225.159620549725     54.9274163340172    -0.93810706248656
63 1 3 0.75     227.496150571108     58.0123355755222     -1.7038750469882
64 1 3 0.75     226.550092913906     61.2912650697391    -3.74672133995362
65 1 2 0     229.263755338768     63.9212598713601    -3.53596551737079
66 1 15 0     230.514556686002     67.4672915604535    -3.45928151712925
67 1 5 0.75     231.354041654187     71.0935154239112     -3.6928474311137
68 1 5 0.75      233.14721898255     72.2599771979179   -0.482592370846627
69 1 15 0     232.509559960625     75.6138728431149    0.700810302668741
70 1 15 0     228.739751234845     76.5744204702765    0.274886343590099
71 1 2 0     226.005479178931     74.1808220547166   -0.163765837469855
72 1 15 0     224.110503988723     76.0015050380598    -3.14405275621743
73 1 15 0     226.907663160621     75.3873986951731    -6.02882823953984
74 1 18 0     226.953810665737     77.6242834440185     -9.3358936931735
75 1 4 0     226.702345812057     80.4797230655379    -11.7522682557004
76 1 5 0.75     224.206932490102     82.3261064214144    -13.8638895317191
77 1 16 0.375     224.421369959119     86.2153509556516    -12.8699394270889
78 1 4 0     222.571371813746     89.3933756873366    -13.6026574521605
79 1 4 0     220.697729970732     92.6076211706626    -12.2372760442631
80 1 5 0.75     217.678767626327     94.5849958188266    -13.6014879771626
81 1 10 0     214.078240199683     95.3236650510001    -14.1678795702778
82 1 19 0     213.894497407372     97.9964326839165    -17.0791808598392
83 1 10 0     210.751701792529     98.3722855749023    -19.0784946723919
ITEM: TIMESTEP
200000
ITEM: NUMBER OF ATOMS
83
ITEM: BOX BOUNDS pp pp pp
-3.0000000000000000e+02 3.0000000000000000e+02
-3.0000000000000000e+02 3.0000000000000000e+02
-3.0000000000000000e+02 3.0000000000000000e+02
ITEM: ATOMS id mol type q xu yu zu
1 1 2 0     185.842275723407     57.1767803983914     18.6750249374754
2 1 6 0     189.478451773318     56.2782238415784     18.4427021882396
3 1 15 0     187.947801408293     52.6661330471978      18.261826452941
4 1 6 0     187.266832061066      51.573675242671     14.7261700859768
5 1 15 0     186.325622762596     51.1783623560834     11.0829887789625
6 1 15 0     188.509293323316      50.220086095191     7.91568232911514
7 1 15 0     192.335313719726     50.0819103399255     8.94691830382891
8 1 18 0     193.941795321095     47.1949182054146     10.8568631023972
9 1 15 0     194.536915268256     43.6754971116736     10.4946397355854
10 1 18 0     192.459509219965     41.8963546154431     7.68725329130221
11 1 15 0     190.282775500811     38.5925323480352     7.51641326556606
12 1 4 0     190.899814509809     38.0269865377315     11.2943407288025
13 1 18 0     191.251802273696     38.8424396051546     15.1184231285409
14 1 4 0     190.502927792653     37.4935071812773     18.1506677001276
15 1 3 0.75     192.520871492617     34.9060955150523     20.3118775757339
16 1 15 0     195.277727709937     32.4493297129815     19.3791928634494
17 1 2 0     198.725835344955     33.2913673966716     19.9289621663504
18 1 3 0.75     201.991579082182     31.9776181834902     17.5152108670902
19 1 1 0     200.377852997516     30.5157912415538     14.4886293078934
20 1 5 0.75     196.748114456643     31.4184259240078      13.127644897023
21 1 15 0     193.698423323754     29.5490382673248      14.347735693705
22 1 5 0.75     190.117352635554     31.2640992994983     14.7513280166666
23 1 15 0     187.612408538966     32.8767331074825     12.4910953400682
24 1 15 0     183.947659702842      31.182851157243     11.5080034008601
25 1 15 0     180.723145551244     33.6717647988291     11.1410691363947
26 1 18 0     177.044450416963     33.2933904430833     12.3240721515695
27 1 10 0     175.622624194123     31.0677556301637     10.1567349628553
28 1 5 0.75     175.180005307949     30.0814122863045     6.42460919667576
29 1 18 0     175.858278027714      31.956626978556      3.2551642005091
30 1 3 0.75     177.632022760382     35.2909924478691     2.34189311526905
31 1 6 0     177.226505293546     39.1003500145982     3.30161513672273
32 1 9 0     174.452880132388     39.5256692706294     6.22909481043544
33 1 4 0      176.14321906938     40.5058982154957     9.64781585991918
34 1 18 0     173.338922295627     40.1067738514273     12.3441895545325
35 1 15 0     174.259993082946     39.4256094479607     15.9445278347649
36 1 18 0     177.643086468992     40.1288895323095     17.2535754540039
37 1 5 0.75     177.513218582679     43.1898449468941     19.5569917675398
38 1 15 0     174.374759060019     43.7551139506886     22.2933025596438
39 1 18 0     170.913512586894     44.3548550550342      23.826423290857
40 1 17 0     171.049214550066     45.8589527848613     27.1719919819948
41 1 9 0     174.152731867672     47.3190369668917     28.7814120774639
42 1 16 0.375     177.651319198893     48.3417819195725     28.0631906919753
43 1 5 0.75     180.423393817725     50.2770760041199     26.3052461509988
44 1 14 0     181.464382900168     51.7562907658511     22.9037927447302
45 1 6 0     178.157902703109     53.6273361135558     22.2731536397651
46 1 11 0     175.527742157613     51.9486203933905     20.0634606010061
47 1 7 -0.75     176.787953328331      48.640705141475     18.6306204241793
48 1 15 0     173.910350809658     48.5044009708323     16.4447040826848
49 1 18 0     172.122969464826     46.1697662388794      13.898460395752
50 1 18 0     168.729398650149     47.5455961511542     13.1636282230885
51 1 12 0     165.076320159989      48.751753225252     11.7650882989558
52 1 15 0     162.569911689385     50.0033132510142     9.65427683443526
53 1 18 0     163.473608064791     52.1713510609275     6.88689048476682
54 1 5 0.75     167.051493331357     52.6260274343018     6.67686086884208
55 1 5 0.75     168.656949771114     55.8606577541212     7.63370918382136
56 1 15 0     168.088957690376      59.059402957027     6.30623098522434
57 1 15 0     167.170437623041     62.1546936829761     4.51355709396792
58 1 17 0     167.556064216842     63.1565570866541     1.14722389289237
59 1 15 0     171.341081451184     63.5905173122384      1.5881662031111
60 1 15 0      172.14989070442     62.5911733825259    -1.84733513001961
61 1 20 0     175.176896065608     61.0485908747784    -1.79788477919583
62 1 4 0      177.04945203248     64.4209586441241    -2.35447552549637
63 1 3 0.75     179.099344108683     67.2829845389853    -1.04524337038369
64 1 3 0.75     181.628854838223     69.3565754163683     0.48665984344977
65 1 2 0     183.170568310163     69.0157399205422     3.99961970017121
66 1 15 0     180.131045196417      67.207618911474     5.08974872780272
67 1 5 0.75     176.567501019413     66.8936130293909     6.89595472201633
68 1 5 0.75     173.507215807338      68.440210384753      8.1461740073022
69 1 15 0     170.257929087005      66.948176340327     9.92645903755049
70 1 15 0     166.433904370617     67.4497139775877      10.003653879799
71 1 2 0     165.323594838119     68.4870784768621     13.5672923062818
72 1 15 0     167.975057089323     69.8329804243508     16.3405998038319
73 1 15 0     169.176035295292     73.3336248378823     17.6336095083369
74 1 18 0     171.718513659518     75.5722857500784     15.4515419476552
75 1 4 0     170.012175106325     78.7805051487766     14.8804582978183
76 1 5 0.75     167.507393387316     79.9193249975219     11.9739240970107
77 1 16 0.375     163.631704853662     79.2161211431409     12.9953980495442
78 1 4 0     162.690776310104      75.966687392766     14.6628619136914
79 1 4 0     162.092914148667     75.6197449521091     18.3451568133848
80 1 5 0.75     158.550919059955     76.9563278198435     18.6828458224909
81 1 10 0     159.422248897105     79.4806219011634     21.3943198047509
82 1 19 0     158.243674940909     80.9682412584905      24.501816969538
83 1 10 0     156.733634592346     81.7181815433739     28.0623388125605
ITEM: TIMESTEP
300000
ITEM: NUMBER OF ATOMS
83
ITEM: BOX BOUNDS pp pp pp
-3.0000000000000000e+02 3.0000000000000000e+02
-3.0000000000000000e+02 3.0000000000000000e+02
-3.0000000000000000e+02 3.0000000000000000e+02
ITEM: ATOMS id mol type q xu yu zu
1 1 2 0     207.458289361076     49.5544396474839    -22.8036214214749
2 1 6 0     209.687431535219     47.3006574016315    -24.8008001666337
3 1 15 0     208.351933588406     49.3273213338422    -27.8627217409784
4 1 6 0     206.602590006469     46.5116669798994    -30.1481099602655
5 1 15 0     209.883149427853     44.7725661526323    -29.7523872890761
6 1 15 0     210.606508853801     41.6156864852746     -27.493125088978
7 1 15 0      207.34436734816     39.3357832236325    -28.8493746183789
8 1 18 0     206.918797195755     37.2840032085701    -25.7774085280585
9 1 15 0     209.085555106982      34.361670195509    -27.1127831554786
10 1 18 0     209.893133154378      33.712397419034    -30.5679300100397
11 1 15 0      209.71071350285      30.107614268286    -31.8461859506959
12 1 4 0     211.381548782886     27.9321972337591    -28.8546863483534
13 1 18 0     213.414839672896     24.4107148773147    -28.5203662906568
14 1 4 0     216.037334734913     24.2528483590914    -25.6578256518176
15 1 3 0.75     216.173046837621     26.6814017002885    -22.8128903826648
16 1 15 0      214.38282888203     26.2367183243393    -19.6728257621253
17 1 2 0      212.78370558612     28.3589901099815    -16.4195753210108
18 1 3 0.75     215.841298368987     28.9153041047292    -14.3795776328259
19 1 1 0     215.160404094217     32.1460996515955    -12.7381133639904
20 1 5 0.75     215.205823773575     36.2247823915799    -12.1919665089741
21 1 15 0     214.823341203845      35.796732718607    -8.52054239782812
22 1 5 0.75     213.671813692264     35.8994951083985    -4.87297966492876
23 1 15 0     210.282828836308     37.7817403932925    -5.72036225020145
24 1 15 0     208.606488032387     39.2596427841536    -2.36950467704888
25 1 15 0     209.315436231739      41.227454571293    0.642094445141651
26 1 18 0     206.505587648592     42.3385563510579     3.06307044216837
27 1 10 0     203.715768470823     44.8324644913447       4.206546252814
28 1 5 0.75     200.032614176581     45.1236175495531     3.96867972736504
29 1 18 0     197.682956597961     47.6800566584774     6.28233635640138
30 1 3 0.75       193.7676341401     47.2764226362675     5.48562495433735
31 1 6 0     190.775404403713     47.8973484334468     7.77866701752777
32 1 9 0     188.175980487597     46.5928912870596     9.81729955867418
33 1 4 0     188.982194821804     43.1670486323055     10.7940593300606
34 1 18 0     192.344834059373     41.2620370901084     10.6864164842818
35 1 15 0     195.420636185084     42.9126245241738     10.6873418936267
36 1 18 0     194.237206816413     45.6911825914419     13.3604367952951
37 1 5 0.75     193.131834933448     49.2229387877525     14.2580109596875
38 1 15 0     195.760537863297     48.8638379831344     16.7887474248406
39 1 18 0     197.143737353186       51.57785647528     18.9041011492712
40 1 17 0     199.852262535889     53.3856128784471     16.8915330388905
41 1 9 0      201.48650098736       51.73350750402     14.0015526145964
42 1 16 0.375     201.360249009157     47.9685797432204     14.4392973935578
43 1 5 0.75     200.505989131299     44.3286526733114     15.4282345479442
44 1 14 0      203.19548984154     41.8164023358549     14.0052662332743
45 1 6 0     206.952024484269     43.7237399787027     14.4656640744741
46 1 11 0     208.105555691901     46.6651191831836     12.0677744099868
47 1 7 -0.75     208.164243423152     49.0649331223291     14.2864123151931
48 1 15 0     211.584820553251     50.3114161529472     12.7984549393712
49 1 18 0      212.45009189969     52.9627326889527     15.2233291322848
50 1 18 0     212.852797730285     51.5240708493069     18.7422554684885
51 1 12 0     213.397027633591     50.9719304820593     22.2648497113557
52 1 15 0     217.184078427857     51.0161288871719     23.8975936529499
53 1 18 0     219.222344962509     53.9222065816323     25.2406286728166
54 1 5 0.75     222.837314253177     54.2702990519874     27.1072504597062
55 1 5 0.75     226.439495086608     55.5333299222524     25.3977095166069
56 1 15 0     229.746302357784     53.9859782553686     24.7921985005146
57 1 15 0     232.548974883189     51.2484977410147     25.9822943952648
58 1 17 0     232.576440673057     51.0603144030309      29.532439516034
59 1 15 0     230.558229329331     48.7724194533047     31.8781842898875
60 1 15 0     226.793745262992     49.1512936426601     33.2446466976861
61 1 20 0      224.95359965785     47.0051604495048     35.8210334622572
62 1 4 0     224.562462000919     43.7717603487588     34.4338494749546
63 1 3 0.75     221.470819919646     42.4235106915283     35.8925139406358
64 1 3 0.75     222.435254516326     39.2199802807173     34.0744918583296
65 1 2 0     226.276667376597     38.3284828686571     34.9391307255384
66 1 15 0     229.767112283956     36.8353895679437     35.1338237657254
67 1 5 0.75     231.459294989977     35.4097421646348     38.0400227529243
68 1 5 0.75     233.742294449959     32.3903656344985     37.7028070431411
69 1 15 0     231.898297330829     29.7900063751348     35.3657106771406
70 1 15 0      229.23670375523     31.6843221843147     32.9249894742607
71 1 2 0     226.318626552411     32.7527808044811     35.2521107784404
72 1 15 0     223.568334016136     32.4268578927111     32.6864010640701
73 1 15 0     225.260768897797     30.2977395624656     29.9869652301596
74 1 18 0     223.130577709551      27.363402242857       29.06718893421
75 1 4 0     219.435360987609     26.2416306241389      28.346664362669
76 1 5 0.75     217.016676763255     23.4175309817681     28.8108916960243
77 1 16 0.375     213.993532863477     24.4621811830841     26.6622280384051
78 1 4 0     213.663260725103     21.5118125499421     24.1905830648792
79 1 4 0     214.699554955682     19.2016293203081      21.254580409609
80 1 5 0.75     212.691466993886     19.1589956631698     18.1775235120924
81 1 10 0     213.931320680928     22.2800738790147     16.0869764722171
82 1 19 0     215.062275129979     25.7807545072831     17.0885435232857
83 1 10 0     216.337812012412     27.1833044380706     14.0680903095473
ITEM: TIMESTEP
400000
ITEM: NUMBER OF ATOMS
83
ITEM: BOX BOUNDS pp pp pp
-3.0000000000000000e+02 3.0000000000000000e+02
-3.0000000000000000e+02 3.0000000000000000e+02
-3.0000000000000000e+02 3.0000000000000000e+02
ITEM: ATOMS id mol type q xu yu zu
1 1 2 0     196.949802950929     62.1929836337582     17.2787138976907
2 1 6 0     197.440624480037      62.801259912126     13.4231740913927
3 1 15 0      200.31584588466     63.6110698953531     10.7567295705205
4 1 6 0     202.057213572938     61.6297917130872     7.73049535564998
5 1 15 0     198.489115466604     59.7587444834206     7.34294363492561
6 1 15 0     195.134508838916     60.2727151848403      5.5477615908944
7 1 15 0     194.632893669493     58.9914911489244     1.94974153648753
8 1 18 0     194.697531207858      61.788613251399   -0.544316010021263
9 1 15 0     196.403618141234     64.6705095517128    0.901423643091553
10 1 18 0     196.222542923883     68.4965869359965     1.34642675759182
11 1 15 0     194.834870364134     72.2839356461672    0.838588519206959
12 1 4 0     198.149955080083     73.6572599256586   -0.420453555914773
13 1 18 0     201.367781194006     72.5909127514895     1.17534640132817
14 1 4 0     202.904188325012     69.4663051992154   -0.126355947967113
15 1 3 0.75     206.896313857009     70.4755928928565    0.458498898060205
16 1 15 0     209.478992938155     72.7290198739908     -1.0221819859717
17 1 2 0      212.13329904133     73.9058005854645    -3.33844347272539
18 1 3 0.75     215.345906246379     75.9549680871045    -2.90523520015524
19 1 1 0     217.939105649998     73.0311986549545    -4.07387876814544
20 1 5 0.75     216.657879033483     69.4990289515334    -3.44017719948767
21 1 15 0     219.738941007043     67.4114191135431    -4.17399035886867
22 1 5 0.75     223.373664753516     66.9892412637282    -5.07029354699367
23 1 15 0     226.219705621904      66.234343563123    -2.41324254306398
24 1 15 0     225.819706324368     62.5947858090034     -1.9360713183553
25 1 15 0     225.993115643744     59.7101661810345    0.180550286732133
26 1 18 0     224.476550504098     56.5373387430807     1.53642041956439
27 1 10 0      223.91089567347     55.8918210030985    -2.10507916490227
28 1 5 0.75      226.29551853055     53.6962860918627    -4.15134174123842
29 1 18 0     227.925819979676     55.8431395011454    -6.51181514539132
30 1 3 0.75     225.696561604589     58.8169523743329    -7.95644017479946
31 1 6 0     228.222597211242     61.3241492467987    -9.80505841608391
32 1 9 0     229.748807623572     64.9827590327012    -11.2425640794339
33 1 4 0     226.480521067456     64.7756306302412    -13.5485766759864
34 1 18 0     226.199683967073     67.5563618547515    -15.3187236498686
35 1 15 0     226.379062055233     70.2063552734258    -12.5708022441751
36 1 18 0     228.424146786807     72.1417112796739    -10.1902041557325
37 1 5 0.75     231.637785849322     71.8174894300501    -7.42238102708916
38 1 15 0     235.160398979953     73.5422300771714    -7.16145504980061
39 1 18 0     236.813569075008     74.7097460567231    -10.4265803624121
40 1 17 0     236.350595466773      78.272525814423     -11.894354373388
41 1 9 0     235.391707575001     80.4810828864468    -8.64639275866753
42 1 16 0.375     231.619382573438     80.6610240720347    -8.15259062216333
43 1 5 0.75     227.820452832864     80.1428694953506    -6.81036247914622
44 1 14 0      226.13304703195     77.2673019970791    -5.43613125008806
45 1 6 0     228.728558954612     75.8805840338775    -2.79196717489226
46 1 11 0     231.243278157566     76.2470527385419    0.126172580461482
47 1 7 -0.75     230.077718031474      78.449492148455     2.96206993514181
48 1 15 0     226.942351037828     79.8157721632963     4.66493386646169
49 1 18 0     223.837923011639     80.0257210808414     2.10051237282179
50 1 18 0     221.681956736233     83.2012784422496     3.59933487239238
51 1 12 0     221.305379523433     84.5965101996511     6.99372933954637
52 1 15 0     223.147504891138     85.3053435902094     10.0904812180039
53 1 18 0      226.96897202026     85.5016961413653     9.53311172771588
54 1 5 0.75     230.500010749061     84.9969602101673     11.2039627985987
55 1 5 0.75     232.781491837289     81.8389578109565     10.7045783034963
56 1 15 0     231.484112518898      78.396403294936     10.9209453053546
57 1 15 0     231.528791927599     75.8535085103187     13.7488771893785
58 1 17 0     233.412497351218     72.6869946509471     15.0501161938488
59 1 15 0     233.249839339993     70.4585766984353     11.7816325873656
60 1 15 0     235.167838389645     67.1742317027032      12.960087830373
61 1 20 0     237.473901121632     67.5783401224766     16.0546886613719