ITEM: TIMESTEP
100000
ITEM: NUMBER OF ATOMS
50
ITEM: BOX BOUNDS pp pp pp
-3.0000000000000000e+02 3.0000000000000000e+02
-3.0000000000000000e+02 3.0000000000000000e+02
-3.0000000000000000e+02 3.0000000000000000e+02
ITEM: ATOMS id mol type q xu yu zu
1 1 18 0     198.048804927513     5.23992095669675    -35.4489259347118
2 1 15 -1     195.226378081104     3.21738101917898    -34.2504311430784
3 1 5 0.75     192.635367382831    0.734581857551429    -32.5317101053106
4 1 6 0     191.444569221877    -2.36760899833972    -33.4498035938372
5 1 3 0.75     187.691219333862    -3.65090818809468    -33.2077923697626
6 1 3 0.75      186.95090556429    -3.29560236322305    -29.3560233676128
7 1 5 0.75     184.208682204842    -3.95610466306903    -27.1274190338812
8 1 5 0.75     182.804102399483    -6.62792965035754    -24.8248265293077
9 1 3 0.75     179.309686625298    -6.25829092389907    -22.8323444656995
10 1 18 0     175.891328955145    -4.90696899417241    -21.0189416134869
11 1 5 0.75     174.986089190275    -4.76794722371138     -17.359276803787
12 1 5 0.75      174.16320398513     -4.4548538346569    -13.3229976524565
13 1 18 0     172.167654132521    -4.83383109633312    -10.0578744990264
14 1 18 0     169.058111347691      -6.168410551017    -7.80748771588803
15 1 5 0.75     165.724954227919    -6.44388594675883    -5.42771066972026
16 1 18 0     162.929488823293    -7.71272774137464    -3.41772573057196
17 1 18 -1     161.567775795048    -7.89880703585298    0.239668927385205
18 1 18 0     162.675789592109    -7.86655188225885      4.2375424879982
19 1 5 0.75     164.908459480468    -9.65313312809162     6.96985113787578
20 1 5 0.75     166.520145250623    -11.7316074017625     10.3445222726483
21 1 18 -1     166.486560050428    -15.5122182861038     12.0585618520393
22 1 18 0      167.37957038162    -19.0859825314314      13.702503063614
23 1 18 0     170.480928556421    -21.5588930766248     13.4021188731732
24 1 5 0.75     172.518183480678     -24.637468597179     15.3826044784314
25 1 5 0.75     172.239459495903    -26.8736465509397     18.6941662801039
26 1 18 0     172.116294922352    -28.8377970873304     21.8691541155682
27 1 18 0     171.730633459909    -30.7185932929036     25.2502663784271
28 1 5 0.75     170.793553134917    -33.0828938555261     28.1169607131044
29 1 18 0     169.806842596151    -36.6638164296784     29.6629703310862
30 1 18 0     169.244704295558    -40.6059869388062     29.1950249574279
31 1 5 0.75     168.850176067431    -44.4069167908706     30.4449332926826
32 1 18 0     169.016089700855    -46.9430259933993     33.3262126354638
33 1 5 0.75     168.789451097742    -50.8939463422852     34.6919529824897
34 1 5 0.75     167.121332147961    -54.0802859034426     36.3781192668278
35 1 18 0     165.234115193185    -57.4797665901402     37.2518337368258
36 1 18 0     161.607404896349    -58.9562424401131     37.5416542093333
37 1 18 0     157.792248902699    -59.0368894376199      38.589187832958
38 1 5 0.75     153.818934430649    -58.8909250692886     39.3396895983624
39 1 5 0.75      149.79128819227    -57.9908135546368     38.7790572029901
40 1 18 0     146.366582779385    -56.1875962777334     38.8582473847683
41 1 3 0.75     143.681107286996    -53.3547532411765     37.1584633153572
42 1 5 0.75      141.63345820581    -51.0443150142861     35.1002059774838
43 1 18 0     138.220585377525     -49.830393898699     33.5459391938745
44 1 5 0.75     134.887935340717    -51.5754163193889     34.6367503961366
45 1 5 0.75     131.306749016816    -52.9243906957834     35.3087590060839
46 1 5 0.75     129.805259509694    -56.1132764796355     36.7310009834888
47 1 3 0.75     126.534336680227    -57.4455344637936     35.5010658173723
48 1 18 -1      122.85193890478    -56.7112523157592     34.1818691787104
49 1 3 0.75     120.915833597873    -59.9252557136631     33.5696598713308
50 1 5 0.75     119.322135296376    -63.1681388818436     31.7885742437446
ITEM: TIMESTEP
200000
ITEM: NUMBER OF ATOMS
50
ITEM: BOX BOUNDS pp pp pp
-3.0000000000000000e+02 3.0000000000000000e+02
-3.0000000000000000e+02 3.0000000000000000e+02
-3.0000000000000000e+02 3.0000000000000000e+02
ITEM: ATOMS id mol type q xu yu zu
1 1 18 0     174.473453928393     21.0182785023691    -2.55312582104928
2 1 15 -1     170.698726573897     21.1293058350811    -1.34774677931388
3 1 5 0.75     167.597978239888     22.7839158624043    0.724330380281065
4 1 6 0       168.2795865255     25.5162226018744     3.43865449279203
5 1 3 0.75     168.216074731176     24.2808816756145     7.14288122944841
6 1 3 0.75     170.331870984006     25.3980042826248     10.6724630378569
7 1 5 0.75     171.228166958161      25.067750598283     14.1641575441467
8 1 5 0.75     169.231754722583     24.3548226139697     17.2265944283075
9 1 3 0.75     167.332101939541     20.8375559434882     18.0646552029129
10 1 18 0     166.762489620111     17.1888085793393     18.6214816750361
11 1 5 0.75     166.110776378286     14.3217083974371     16.3979790722669
12 1 5 0.75     166.702506036673     11.7490555179857     13.2701018542352
13 1 18 0     167.240442248045     9.53052492898288     10.3116930644331
14 1 18 0      169.22973424759     7.26554594195447     7.43580804209707
15 1 5 0.75      172.68252672911     4.94852435795092     6.60843784607182
16 1 18 0     175.914854811983     2.92381272502989     7.16644812905793
17 1 18 -1     179.613785200146     2.43940911988693     7.01427410286912
18 1 18 0     183.059951387961    0.407870169751707     7.38392790745571
19 1 5 0.75     186.720439244987    -1.58440168183504     7.39936621226846
20 1 5 0.75     190.223304967494    -3.12320933412442     5.93086482642893
21 1 18 -1     192.654534072978    -6.18418582949884     5.30271702633895
22 1 18 0     193.388823811103    -9.93496598699284     5.53551379616203
23 1 18 0     191.547346178683    -11.5028459944794     8.72148744963491
24 1 5 0.75     192.022384676195    -13.2292281674452     12.4415717149376
25 1 5 0.75     192.071009866277    -12.5577319247814     16.3526258551312
26 1 18 0     190.878544467248    -10.6932912774334     19.9844286122787
27 1 18 0     191.963593225539    -9.30274852275916     23.5123518060213
28 1 5 0.75     193.724540514016    -10.2967167190447      26.704032460625
29 1 18 0     194.950852499929    -13.6449473234773     29.0799269205944
30 1 18 0      196.91249779409    -16.3666778427492     31.3642873098782
31 1 5 0.75     200.359694532369    -16.7307418287943     33.4641739820871
32 1 18 0     201.907563430952     -18.271980954608      36.462721417963
33 1 5 0.75     202.631021358729    -20.9250826058023     39.1642203841905
34 1 5 0.75     203.933858966932    -24.1595011525011     41.0557026861669
35 1 18 0     205.966068829501    -27.5599709697104     41.1004981635289
36 1 18 0     208.376679564957    -30.5877676805115     42.7435145604852
37 1 18 0     208.499975989362    -34.2109538784115     44.2368823631016
38 1 5 0.75       207.3068835614    -37.1584450110596     46.6737053996384
39 1 5 0.75     205.520705997862    -40.1467143052435     48.2123582921474
40 1 18 0     203.601797787689    -43.1378224785067     50.7207571088416
41 1 3 0.75     200.744581206347    -41.6975762848314     53.1088311569853
42 1 5 0.75     199.419702116409    -40.3025959649361     56.2549616302599
43 1 18 0     199.285508185726    -38.5484730980123      59.775180593579
44 1 5 0.75     195.394298659852    -37.6099587431666     60.4109760876562
45 1 5 0.75     192.351914620484    -35.8813685112049     61.9238318643313
46 1 5 0.75     193.057190130924    -32.1703707660523     63.0158055273666
47 1 3 0.75      194.64191147979    -29.6214283010686     60.7011969417171
48 1 18 -1      195.00000122482    -25.8598698789327     58.9778659959993
49 1 3 0.75     196.238381737548    -23.7561993400719      62.200207506842
50 1 5 0.75     197.696703351013    -21.3359014638409       64.49502094361
ITEM: TIMESTEP
300000
ITEM: NUMBER OF ATOMS
50
ITEM: BOX BOUNDS pp pp pp
-3.0000000000000000e+02 3.0000000000000000e+02
-3.0000000000000000e+02 3.0000000000000000e+02
-3.0000000000000000e+02 3.0000000000000000e+02
ITEM: ATOMS id mol type q xu yu zu
1 1 18 0     145.784806765105    -44.4399985831349     79.1818861064836
2 1 15 -1     145.246148245891    -44.3604813012908     83.1994094367131
3 1 5 0.75     147.677687395817    -43.9817824928626     86.7796823114834
4 1 6 0     149.684679648291    -47.3576332880319     86.3689711572982
5 1 3 0.75     153.063604500491    -48.4568823426266      84.828978683692
6 1 3 0.75     156.690660580247     -48.449593060608     84.3361168134949
7 1 5 0.75     160.175022355957    -47.6914516340133     83.3787552878201
8 1 5 0.75     163.763618950461    -46.5065760515557     82.6462782081723
9 1 3 0.75     166.264538591857    -44.2241634194388      81.016009488079
10 1 18 0     169.503296564854    -42.5909132183721     79.2635925822397
11 1 5 0.75     169.659675451254    -42.4425741214487     75.1996134841543
12 1 5 0.75     167.254002013605    -40.7560929949311     72.2543236078527
13 1 18 0     164.583364695989    -37.9251089506977     70.9212813735007
14 1 18 0     162.706506956985    -34.9969523675554     69.0807112564437
15 1 5 0.75     162.093868793832    -31.9727056808297     66.6714506003044
16 1 18 0     161.934851804791    -30.5630561636856     62.9160049689963
17 1 18 -1     162.642747980736    -27.5023845064026     60.6790967645848
18 1 18 0     165.491254239879    -25.9217518830803     58.5074717197846
19 1 5 0.75     167.859540622898    -23.9785382429782     56.0828907309799
20 1 5 0.75     168.093093889644    -21.5654335261181     52.5963458189106
21 1 18 -1     168.926593567815     -19.458690327533     49.1607133467029
22 1 18 0     171.129918940994    -17.4186010814908      46.723321560722
23 1 18 0     175.475050312084    -16.7927128665753     46.3466205696795
24 1 5 0.75     178.871765084153    -15.3689744643216     45.6438779519518
25 1 5 0.75     183.036505131269    -15.0010464706024     45.8270013320535
26 1 18 0     186.962115418359    -14.2045695442481     46.6818762934947
27 1 18 0     190.696534369434    -15.2079529813726     45.4561997896529
28 1 5 0.75     193.888110189714    -17.1283773144568     44.4678537450255
29 1 18 0     196.750203925493    -19.1181530302567      46.085312695764
30 1 18 0     199.177617627899    -21.5857041197977     47.4906909742969
31 1 5 0.75     202.413711626488    -23.9338317215975     47.1530006828745
32 1 18 0     203.126108573863    -27.5892307731887     46.6474029909833
33 1 5 0.75     206.330267033321    -28.9849505148371     48.6335653749837
34 1 5 0.75     207.705578855695    -32.0379467431826     50.9526997536423
35 1 18 0     208.047120315219    -34.7914961276429     53.5831262806174
36 1 18 0     210.402896401878    -38.3611560426747     54.8502354150464
37 1 18 0     211.505828106822    -40.7139317422623     51.7953645395565
38 1 5 0.75     214.158344541932    -43.1777381750785     50.3983068331564
39 1 5 0.75     217.120918141194    -45.9005733335792     51.7672271415287
40 1 18 0      218.14210486322    -49.5305646241002     53.2596150163588
41 1 3 0.75     221.591745094788    -51.2018504313773     54.0401841695889
42 1 5 0.75     225.195292645484     -52.756608020209     54.2189318760758
43 1 18 0     227.796055343653      -54.52335795059     51.9222882373506
44 1 5 0.75     226.919252694924      -57.26850721544     48.9769419362072
45 1 5 0.75     227.561678883135    -59.8160841671484     46.2645408503514
46 1 5 0.75     226.585635282585    -63.4924846851885     46.5704995987283
47 1 3 0.75     223.062480047225    -63.8424409453917     48.3096461868479
48 1 18 -1     219.340593164085    -65.5337718842421     49.0289375497573
49 1 3 0.75     217.662834918668    -69.0229964571377     48.8032421222282
50 1 5 0.75     217.445299731948    -72.8001663317478     48.1683656773043
ITEM: TIMESTEP
400000
ITEM: NUMBER OF ATOMS
50
ITEM: BOX BOUNDS pp pp pp
-3.0000000000000000e+02 3.0000000000000000e+02
-3.0000000000000000e+02 3.0000000000000000e+02
-3.0000000000000000e+02 3.0000000000000000e+02
ITEM: ATOMS id mol type q xu yu zu
1 1 18 0     154.144130740154    -78.8376214027667     57.6865161193681
2 1 15 -1     153.914279229039    -76.3545312906039     60.9073072845561
3 1 5 0.75      155.07220105451    -73.7711526920119     63.8695633124838
4 1 6 0     156.494577506835    -70.5495812979908     65.4921773273828
5 1 3 0.75     159.220448995278    -69.5170558474378     68.1749180937222
6 1 3 0.75     158.449696554323      -70.75003883361     71.8390052904692
7 1 5 0.75      155.31146072751     -73.082061489914     72.7186435092738
8 1 5 0.75     154.155999671872    -75.7183420662755     70.1085630410201
9 1 3 0.75     150.644348565262    -77.3473202227868     71.3329666366239
10 1 18 0     146.797951236798    -77.6313744581417     72.5738707476218
11 1 5 0.75     142.923691655437    -77.1985775175884     73.3513059354031
12 1 5 0.75     139.430749046471    -75.5086933685253     71.2838926629404
13 1 18 0     136.746945093336    -72.2355899839046      70.996982724719
14 1 18 0     135.494174844212    -68.4062934241851     70.8208972750146
15 1 5 0.75     136.584402518094    -64.5507230411688     71.2647455817243
16 1 18 0      139.43154836202    -62.1418977979876     70.5116252445565
17 1 18 -1     140.957193548643    -58.4176952339256     70.5635224494834
18 1 18 0     144.038969065171    -55.8927870004466     70.6769013947287
19 1 5 0.75     147.819814221383    -53.9874603916993     71.2168814583174
20 1 5 0.75     150.127092410406    -50.8579576326569     73.2629846770497
21 1 18 -1     152.441811964341    -50.0085830922804     76.5973505429686
22 1 18 0     154.292173751867    -47.5410989079443     78.8350419654227
23 1 18 0     157.356374573165    -45.8518923959536     81.0747844501797
24 1 5 0.75     161.152215498492    -46.2447376640933     82.5034736006952
25 1 5 0.75     164.028032778401    -46.5903056020448     85.0561213123115
26 1 18 0     167.126388533133    -46.8462194340295      87.811489833174
27 1 18 0     170.910994835537    -46.6044582741737     89.3617028246903
28 1 5 0.75     174.156503796002    -46.2574563828053     91.7672273405718
29 1 18 0     177.324509128612    -48.1496192756776      90.958791122697
30 1 18 0     180.951468947433    -49.8252947852499     89.8006738172495
31 1 5 0.75     182.747326473912    -53.3708962066129     90.0687414877906
32 1 18 0      183.68606299016    -57.2217654934903     91.3772433807656
33 1 5 0.75     182.363839967562    -60.2166287148555     93.5675269171872
34 1 5 0.75     179.719681949542    -61.6097585600597     95.9776220571312
35 1 18 0     177.143778463074    -61.1536173958005     99.2947226545216
36 1 18 0     177.248103277887    -62.1426505019021     103.224020625807
37 1 18 0      174.39366021492    -62.1301960539537     105.948193742556
38 1 5 0.75     171.743755546194    -62.5681060676915     108.887427599937
39 1 5 0.75     168.731709733247    -62.7818712375498     111.304288363513
40 1 18 0     165.305586862072     -63.210892198653     113.134679945435
41 1 3 0.75     161.865649087134    -64.4606159312332     112.449306196835
42 1 5 0.75     158.054327345543    -65.1880844208859     111.307692711872
43 1 18 0     154.293288781785    -64.8472315153264     111.329567562937
44 1 5 0.75     152.831000505625    -66.3424121536685     114.520879165362
45 1 5 0.75     151.945716934286     -68.948573024712      117.78273079677
46 1 5 0.75     152.127756296437     -69.109080569958     121.675754420418
47 1 3 0.75     152.010937525466    -70.1768717669407     125.462146381952
48 1 18 -1     152.029388355825    -71.7470525719522     129.189817582779
49 1 3 0.75     149.155540360897    -74.5116370609508     130.525823284815
50 1 5 0.75     146.313161287738    -76.4129959923613     132.651286443764
ITEM: TIMESTEP
500000
ITEM: NUMBER OF ATOMS
50
ITEM: BOX BOUNDS pp pp pp
-3.0000000000000000e+02 3.0000000000000000e+02
-3.0000000000000000e+02 3.0000000000000000e+02
-3.0000000000000000e+02 3.0000000000000000e+02
ITEM: ATOMS id mol type q xu yu zu
1 1 18 0      104.97877229469    -43.3537740399198     68.3011005954961
2 1 15 -1     102.241913333159    -44.6814520994788     71.2239545174046
3 1 5 0.75      99.729608376455    -46.1831383735467     73.6545755720555
4 1 6 0     99.6983352740618    -44.0928164233327     77.0029100445173
5 1 3 0.75     103.479225116749    -43.0853064823676     77.9781762662878
6 1 3 0.75      106.47732981552    -45.0276637167205     79.6318578679227
7 1 5 0.75     104.899467794409    -46.8722850620636     82.7955867715906
8 1 5 0.75     104.532821183222     -50.641698132628     82.4195185867353
9 1 3 0.75     105.985408670662    -54.7069688512423     83.0247464129526
10 1 18 0     108.223715506648    -57.4231727332256     84.7724263150069
11 1 5 0.75     111.789463869611    -59.1876173609343     84.7389086106785
12 1 5 0.75     114.675274581768    -62.2334980315595     84.9405341044785
13 1 18 0      118.21068122736    -63.6430870368749     86.1193003158252
14 1 18 0     121.542339457405    -65.5373110282444     86.5225415515409
15 1 5 0.75     125.084393742811    -67.0358482180323     87.0983631420202
16 1 18 0     127.868699967329    -66.7838235434174     90.4003591747155
17 1 18 -1     128.838938934414    -67.9201062452722     93.9936555850008
18 1 18 0     129.310339236133    -65.9669119347909      97.728987400202
19 1 5 0.75     128.324942818987    -63.0688576540299     100.460986466468
20 1 5 0.75     126.276157386457    -61.6696912381106     103.627258806118
21 1 18 -1      123.88360064219    -58.8074016872492     105.031055598861
22 1 18 0      121.46216068919    -55.7394812978408     104.122410939743
23 1 18 0     118.643552066498    -53.1004284701779     102.915106198748
24 1 5 0.75     115.609210423807     -50.564666971723     102.726188423845
25 1 5 0.75     113.878811015032    -47.2413182911733     103.734080878006
26 1 18 0     110.643822109317    -45.1624649586547       105.1122930879
27 1 18 0     107.442506677612    -42.6145779552044     106.263400739004
28 1 5 0.75     105.503831579004    -39.5959988380046      108.34915578982
29 1 18 0     101.342003273706    -39.5512199678383     107.619849180058
30 1 18 0     97.7964907254845    -39.8477705866805     105.813090524192
31 1 5 0.75     95.2842040614716    -42.5212940443488     103.979729348473
32 1 18 0     92.4400256565289    -44.5470827881862      102.77374603584
33 1 5 0.75     89.7917275795065    -43.4356965827457      100.18777521418
34 1 5 0.75     87.8956223923735    -42.3956371275525     96.4845695469018
35 1 18 0     86.1221692944964    -40.2895776418124     93.8762316104731
36 1 18 0     83.8457835888516    -39.9875443862023     90.3765254259499
37 1 18 0     83.5620683041619    -40.5920464988834     86.2718678173802
38 1 5 0.75     83.7467625510813    -40.1557838899142     82.2288237210226
39 1 5 0.75     83.0311111814508    -40.7622926679352     78.1707301762042
40 1 18 0     82.2338864135434    -38.8469034273972       74.64557515013
41 1 3 0.75     79.6548297520544    -37.9278214881493      71.772738359541
42 1 5 0.75     76.1484126645332    -38.9872105481031     69.9857042409029
43 1 18 0     74.4421555887118    -39.0218431920419     66.1960481348649
44 1 5 0.75     71.3377237012214    -40.4043063995775     64.0674509951697
45 1 5 0.75     69.1983180463029    -41.6744364468149     60.4990284873981
46 1 5 0.75     66.4110288813689    -39.9214014568091     59.0750190952449
47 1 3 0.75     66.8597803288413    -38.4283652331341     55.7029661251055
48 1 18 -1     66.4993450286885    -35.2543902174981     53.2991381048922
49 1 3 0.75     65.5744603737229    -32.5881434394125     50.6095733082847
50 1 5 0.75      65.057417932291     -29.115247356568     48.8099252860836
ITEM: TIMESTEP
600000
ITEM: NUMBER OF ATOMS
50
ITEM: BOX BOUNDS pp pp pp
-3.0000000000000000e+02 3.0000000000000000e+02
-3.0000000000000000e+02 3.0000000000000000e+02
-3.0000000000000000e+02 3.0000000000000000e+02
ITEM: ATOMS id mol type q xu yu zu
1 1 18 0      135.88335287722    -2.25894535171635     128.891371305454
2 1 15 -1     133.027028565116    -4.53561965420873     130.438427676534
3 1 5 0.75     129.265198108326    -5.23232583037137      132.07028779058
4 1 6 0     125.542984966426    -4.80474438381741      131.73109616141
5 1 3 0.75     123.894557215778    -6.36266638021976     134.820685718526
6 1 3 0.75     123.225145493654    -9.93125761476088     133.154800658225
7 1 5 0.75     122.199783279562    -13.4706584400267     134.367660530698
8 1 5 0.75     119.276734461404     -16.215057043716     134.494117545631
9 1 3 0.75     116.248125417685    -17.6786867573834     132.377698251218
10 1 18 0     113.758993164742    -19.7858785904632     130.012688552992
11 1 5 0.75     113.145078089669    -18.3562716209339     126.420319929402
12 1 5 0.75      112.07718978296    -19.0399137987917     122.408888680185
13 1 18 0     109.798740970555    -19.3563693809903     118.937124453278
14 1 18 0     107.561073599318    -21.5910099407693      116.48323813531
15 1 5 0.75     104.017721980491    -23.5558345451106     115.689618009438
16 1 18 0     100.256181965724    -22.2182700879568     114.527454335526
17 1 18 -1     96.6367421661972    -23.3821752873236     113.075134982111
18 1 18 0     94.6755027401052    -25.4490294304362     110.158031225015
19 1 5 0.75     93.3129424733592    -27.6532259751147     106.690669107693
20 1 5 0.75     92.1320084830962     -29.963582716492     103.704372923923
21 1 18 -1      91.354857200563    -30.7873116718564     99.7998138409449
22 1 18 0     90.8199200950411    -31.2983291343547     95.9804629815564
23 1 18 0      87.758490437475    -32.0130895615182     93.7487600839415
24 1 5 0.75     84.5476387784314    -30.4311864964054      91.697640953022
25 1 5 0.75     81.3926429473354    -28.2172964073006     90.4829183744523
26 1 18 0     79.0670114884263    -27.1057642081335     87.0847778737788
27 1 18 0     76.6314185070042    -26.1283011099274     83.9374452643823
28 1 5 0.75     74.8232154440843    -26.4564702580638     80.2891850272256
29 1 18 0     73.1659256635073    -26.3633150447821     76.6976341760662
30 1 18 0     70.2204342247886    -27.1864737585119     73.7545745993296
31 1 5 0.75     67.5519006797414    -30.0197127652846     73.0773921155883
32 1 18 0     66.1688083883534     -33.478846539229     71.5515358366349
33 1 5 0.75     62.6005469823724    -34.0099322190736     70.4407581467127
34 1 5 0.75     59.1715203693246    -35.4826329568234     68.6716653096682
35 1 18 0     56.3291628733837    -38.1812007484698     68.5952526567141
36 1 18 0     52.5011608090316      -40.07080317261     69.0349031760121
37 1 18 0     48.6921615818202    -39.8629699638886     68.6629660252214
38 1 5 0.75     45.4692341072172    -38.6421699386102     70.7494490372388
39 1 5 0.75     44.5927154112357    -35.6188527947675     73.4403905913345
40 1 18 0     44.5439986338193    -32.0016227338527     75.1755736859262
41 1 3 0.75     40.7177955483088     -31.327470634368     75.8318269992616
42 1 5 0.75     36.8139546834179     -29.824640208287     74.9494471509097
43 1 18 0     34.7945238087464    -27.5960813206683     72.5479283842562
44 1 5 0.75     34.2524523575473    -24.9001967880867     69.5406304848543
45 1 5 0.75     34.4546571603504    -21.7789403580802     67.2708944412424
46 1 5 0.75     32.0086732203751    -18.8107503802046     67.6036933778004
47 1 3 0.75     28.6108957607447    -19.2399080136925     65.6732739282487
48 1 18 -1     25.1485157322873    -20.9964427505582     64.8269974524633
49 1 3 0.75     23.1741672270423    -23.2219603795058     67.6508864069625
50 1 5 0.75     22.2663910467777    -26.3098807351121     69.9076312525314
ITEM: TIMESTEP
700000
ITEM: NUMBER OF ATOMS
50
ITEM: BOX BOUNDS pp pp pp
-3.0000000000000000e+02 3.0000000000000000e+02
-3.0000000000000000e+02 3.0000000000000000e+02
-3.0000000000000000e+02 3.0000000000000000e+02
ITEM: ATOMS id mol type q xu yu zu
1 1 18 0     90.3399827588563    -2.37804511635357     87.4984139100415
2 1 15 -1     93.1574832369411    -1.93794297784913     90.2596240575729
3 1 5 0.75     95.8151758758946    -2.94784797312015     93.4747788633107
4 1 6 0     97.1754429243148    -3.66019852409419     96.9193724896626
5 1 3 0.75     98.3893589641701    -1.25350044799773     99.9890788401757
6 1 3 0.75     102.034045075417    -2.04938372057045     99.5270635341271
7 1 5 0.75     105.229379100469    -1.30650319896107      97.670148228971
8 1 5 0.75     105.245358598407    -1.88735439080615     94.0770001976808
9 1 3 0.75     106.470475328609    -1.97553706081305     90.4115894823497
10 1 18 0     107.562133457607    -2.30711756335629     86.7811329360402
11 1 5 0.75     105.113377521473    -3.58495548854428     84.3401419902103
12 1 5 0.75     101.992313491741    -3.26587881853672     81.5992443932715
13 1 18 0     99.7296349717025    -4.50588199074945     78.5744881389033
14 1 18 0     96.7605618389492    -5.51940038604263     75.7054396980863
15 1 5 0.75     94.8008697165462    -6.56165465412604     72.9693851142199
16 1 18 0     93.6327639236538    -10.1416718799449      71.523027084809
17 1 18 -1     91.0200172316904    -13.0694614160779     71.4792175301782
18 1 18 0     91.0794052374734    -16.8330151521673     71.2612538491499
19 1 5 0.75     89.2012329399341    -20.1403416834715     71.4136148822869
20 1 5 0.75      88.146272454413    -23.9324850805214     72.5569260794919
21 1 18 -1     87.3811825811767    -27.7364510961658     73.6925578793877
22 1 18 0     85.3497798006998    -31.1316005462094     72.9768168383136
23 1 18 0     82.3920225076355    -33.6690308982448     72.2672762000526
24 1 5 0.75     78.5145944782619    -34.5116404188376     72.9522567889083
25 1 5 0.75     74.8326789878032    -35.1662101220451     74.0024585300437
26 1 18 0     71.4348392670471    -36.6632013646242     75.0820639891388
27 1 18 0     67.8935098217914     -38.393799762576     76.3893627565675
28 1 5 0.75      64.209169545011    -39.5303732078949     76.5502733835219
29 1 18 0     62.3338876583722    -42.8478567794914     77.5488502949013
30 1 18 0     60.3094749107387     -45.972255959619     75.8949446055789
31 1 5 0.75     59.6803261212887    -49.8421780803863     75.1234043619049
32 1 18 0     56.9628920011387    -52.3567777631608     75.6778280307525
33 1 5 0.75      54.273839914225    -52.2714959608298     78.6046239815095
34 1 5 0.75     53.1124457887192    -50.9185699783531     82.1646825223757
35 1 18 0     50.3692475148606    -49.6613289778526     84.5367199878776
36 1 18 0     47.9032548226277    -48.3937316300104     87.3214797679833
37 1 18 0     44.9154145964057    -47.9893446492273     90.2033884223925
38 1 5 0.75     43.6754041281866    -45.5938248238957     92.8903880342603
39 1 5 0.75     42.7978615166458     -43.804433093344     96.4068393129522
40 1 18 0     42.7565524043206    -42.7947768595546     99.7721178147907
41 1 3 0.75     42.3583395728384    -41.9920964829544     103.668781001933
42 1 5 0.75     41.1047018536419    -43.0338102640105     107.523767358018
43 1 18 0     40.3099335651491     -44.210568530844     111.168835322267
44 1 5 0.75      38.495623520461    -45.6703624484263     114.401328571631
45 1 5 0.75     37.4045941699307    -47.7638384782723     117.626977454917
46 1 5 0.75     34.7104975205711    -50.4940201004823      117.51478256876
47 1 3 0.75      30.553247834707    -50.4600822076708     117.677115530946
48 1 18 -1     26.8771927208039    -52.0062080890669     118.703714671086
49 1 3 0.75     26.7864789576365    -55.4477902002775      116.91023941481
50 1 5 0.75     25.5606853405486    -58.7717790851891     115.080030760305
ITEM: TIMESTEP
800000
ITEM: NUMBER OF ATOMS
50
ITEM: BOX BOUNDS pp pp pp
-3.0000000000000000e+02 3.0000000000000000e+02
-3.0000000000000000e+02 3.0000000000000000e+02
-3.0000000000000000e+02 3.0000000000000000e+02
ITEM: ATOMS id mol type q xu yu zu
1 1 18 0     118.307691692319     24.1357265655848     83.5729476922772
2 1 15 -1     114.868023006624     25.2001751837883     84.6333735274474
3 1 5 0.75     111.105962071106      26.348065763927     85.2027951462382
4 1 6 0     111.437447157852     25.2396316673873     88.7785226261506
5 1 3 0.75     109.073371958681     26.1046075270312     91.9883911544376
6 1 3 0.75     105.902938103829     25.8680503116562     94.3413997201989
7 1 5 0.75     105.021052889586     26.7158374064141     97.9551638263947
8 1 5 0.75     107.500743274163     26.9154317077412     101.037558613918
9 1 3 0.75     106.780173686021     25.5864342065063     104.577473231339
10 1 18 0     104.788035538181      24.784794580003     107.965553624171
11 1 5 0.75     100.978350374437     24.2549886407298     107.996849153573
12 1 5 0.75       97.36937574573     25.0704962296297     109.049601307524
13 1 18 0     93.8726059323512     25.5246644762123     110.948419042725
14 1 18 0     90.7574208340861      26.277298127493     113.256192610376
15 1 5 0.75      87.845039749125     26.3602498152354     116.248594735998
16 1 18 0     86.7850193338639     22.6976134701755     117.491817912096
17 1 18 -1     83.6463105333214     20.1053428147423     118.030921346642
18 1 18 0       84.83686703988     16.1882958560834     118.514500388556
19 1 5 0.75      84.037760554575     12.4206621389608     119.660898733212
20 1 5 0.75     84.1706909044584     8.79653490874108     121.425942460819
21 1 18 -1     82.5043186606479     5.25167113685438     122.814921747993
22 1 18 0     80.5012753206189     1.92120691678984      122.67227232845
23 1 18 0     81.1162758366666    -1.98762479486735     122.040714614299
24 1 5 0.75     82.1900367844861    -5.68771541714549     123.724572948768
25 1 5 0.75     81.3696543923849    -9.02457153900886     125.874625506974
26 1 18 0     79.4618770236996    -11.4791930598803     128.433290381997
27 1 18 0     78.9425708131482     -14.439495546574     131.221690329506
28 1 5 0.75     77.2348387896776    -16.9820867840132     133.815711649902