LAMMPS (10 Mar 2021)
Reading data file ...
  orthogonal box = (-300.00000 -300.00000 -300.00000) to (300.00000 300.00000 300.00000)
  1 by 1 by 1 MPI processor grid
  reading atoms ...
  93 atoms
  scanning bonds ...
  1 = max bonds/atom
  reading bonds ...
  92 bonds
Finding 1-2 1-3 1-4 neighbors ...
  special bond factors lj:    0        0        0       
  special bond factors coul:  0        0        0       
     2 = max # of 1-2 neighbors
     2 = max # of 1-3 neighbors
     4 = max # of 1-4 neighbors
     6 = max # of special neighbors
  special bonds CPU = 0.000 seconds
  read_data CPU = 0.002 seconds
Setting atom values ...
  1 settings made for charge
Setting atom values ...
  0 settings made for charge
Setting atom values ...
  1 settings made for charge
Setting atom values ...
  0 settings made for charge
Setting atom values ...
  0 settings made for charge
Setting atom values ...
  0 settings made for charge
Setting atom values ...
  8 settings made for charge
Setting atom values ...
  0 settings made for charge
Setting atom values ...
  9 settings made for charge
Setting atom values ...
  0 settings made for charge
Finding 1-2 1-3 1-4 neighbors ...
  special bond factors lj:    0        1        1       
  special bond factors coul:  0        1        1       
     2 = max # of 1-2 neighbors
     6 = max # of special neighbors
  special bonds CPU = 0.000 seconds
New timer settings: style=normal  mode=nosync  timeout=11:50:00

CITE-CITE-CITE-CITE-CITE-CITE-CITE-CITE-CITE-CITE-CITE-CITE-CITE

Your simulation uses code contributions which should be cited:

- neighbor multi command:

@Article{Intveld08,
 author =  {P.{\,}J.~in{\,}'t~Veld and S.{\,}J.~Plimpton and G.{\,}S.~Grest},
 title =   {Accurate and Efficient Methods for Modeling Colloidal
            Mixtures in an Explicit Solvent using Molecular Dynamics},
 journal = {Comp.~Phys.~Comm.},
 year =    2008,
 volume =  179,
 pages =   {320--329}
}

CITE-CITE-CITE-CITE-CITE-CITE-CITE-CITE-CITE-CITE-CITE-CITE-CITE

Neighbor list info ...
  update every 10 steps, delay 0 steps, check yes
  max neighbors/atom: 2000, page size: 100000
  master list distance cutoff = 38.5
  ghost atom cutoff = 38.5
  binsize = 8.7926654, bins = 69 69 69
  2 neighbor lists, perpetual/occasional/extra = 2 0 0
  (1) pair wf/cut, perpetual
      attributes: half, newton on
      pair build: half/multi/newton
      stencil: half/multi/3d/newton
      bin: standard
  (2) pair coul/debye, perpetual, skip from (1)
      attributes: half, newton on
      pair build: skip
      stencil: none
      bin: none
Per MPI rank memory allocation (min/avg/max) = 10.86 | 10.86 | 10.86 Mbytes
Step PotEng Press KinEng Temp Lx Ly Lz Pzz S/CPU Density 
       0    4235.7942    -2.456218            0            0          600          600          600            0            0 7.6579289e-05 
    1000    29.172582  0.021217833    273.34118     996.7424          600          600          600   0.00868007     21575.86 7.6579289e-05 
    2000    20.273127 0.0063236891    86.369376    314.94713          600          600          600  0.024334644    32701.065 7.6579289e-05 
    3000    21.097963 0.0080020413    80.218379    292.51743          600          600          600  0.017725045     35564.54 7.6579289e-05 
    4000    17.443281 0.0057064628    83.349943    303.93673          600          600          600  0.011822012    35042.183 7.6579289e-05 
    5000    22.622015 -0.022493587    83.156263    303.23047          600          600          600 -0.036355738    33303.457 7.6579289e-05 
    6000    19.655525 -0.011279366    73.099859    266.55965          600          600          600 -0.00019996136    34044.675 7.6579289e-05 
    7000    31.271774 -0.005023961    81.547918    297.36562          600          600          600 -0.010707805    35463.503 7.6579289e-05 
    8000    33.565727 -0.0035632937    78.823768    287.43196          600          600          600  0.031979513    33982.613 7.6579289e-05 
    9000    26.033013 -0.0070365181     101.4655    369.99537          600          600          600 -0.0070345745    33830.489 7.6579289e-05 
   10000    28.403454  0.015770089    76.300763    278.23179          600          600          600  0.018924055    33714.373 7.6579289e-05 
   11000    26.944874 0.0062940756    95.237651    347.28542          600          600          600  0.012740646    31058.796 7.6579289e-05 
   12000    20.591758  0.015126372    94.749054    345.50374          600          600          600  0.040558315    32584.964 7.6579289e-05 
   13000    23.489503   0.03383725      81.5394    297.33455          600          600          600  0.029726148    34004.378 7.6579289e-05 
   14000    28.140741 0.00070902927    94.919528    346.12538          600          600          600 -0.0015315256    32894.696 7.6579289e-05 
   15000    26.711438  0.011610779    76.953089    280.61051          600          600          600 0.0099348986    32744.976 7.6579289e-05 
   16000    24.816355  0.032566654    92.379837    336.86436          600          600          600  0.028191486    32936.025 7.6579289e-05 
   17000    21.691393 0.0067150382    89.178424    325.19036          600          600          600  0.020786356     32874.07 7.6579289e-05 
   18000    28.926391 0.0074853774     74.36627    271.17764          600          600          600  0.010933749    35007.963 7.6579289e-05 
   19000    18.125167 8.6375579e-05    82.872884    302.19712          600          600          600 0.0039034474    32224.712 7.6579289e-05 
   20000    17.844598 0.0082045217    98.505538    359.20181          600          600          600 -0.0055869382    30913.891 7.6579289e-05 
   21000    20.484706 -0.011348063    68.646468     250.3203          600          600          600 -0.017141986    31615.516 7.6579289e-05 
   22000    26.570334  0.012490138     88.70797    323.47484          600          600          600  0.041200514    31583.614 7.6579289e-05 
   23000    21.849393 0.0085618051    86.519068    315.49298          600          600          600  0.010545312    31102.325 7.6579289e-05 
   24000    21.842295 -0.018916762    80.124181    292.17394          600          600          600 -0.018797295     29817.68 7.6579289e-05 
   25000     23.44872 -0.0055727304    81.783589    298.22499          600          600          600 -0.025118007    30680.526 7.6579289e-05 
   26000    25.168094 -0.017848121    85.780141    312.79847          600          600          600   -0.0194249    32542.491 7.6579289e-05 
   27000    20.527269 -0.0046533229    96.818713    353.05078          600          600          600 0.0046455651    31997.071 7.6579289e-05 
   28000    21.389629 -0.022430055    92.811917    338.43994          600          600          600  -0.03615943    30282.909 7.6579289e-05 
   29000    36.611998 -0.016735226    78.718403    287.04775          600          600          600 -0.0071416177    32472.701 7.6579289e-05 
   30000    21.460865 -0.019246369     80.46912    293.43176          600          600          600  -0.02803727    30300.191 7.6579289e-05 
   31000     22.69506 -0.0040459674    80.656392    294.11465          600          600          600 -0.0042475426    33190.662 7.6579289e-05 
   32000    27.860531 -0.011330846    79.147584    288.61276          600          600          600 -0.00095008964    31368.664 7.6579289e-05 
   33000     17.52158 -0.017722314    77.520342      282.679          600          600          600 -0.018493228    29579.638 7.6579289e-05 
   34000    22.626295 -4.2399277e-05    77.124816    281.23671          600          600          600   0.00564926    29361.802 7.6579289e-05 
   35000     18.50676  0.013739413    82.915356      302.352          600          600          600   0.02138775    30472.781 7.6579289e-05 
   36000    20.099397 -0.0081379304      89.2336    325.39156          600          600          600 0.0043697217    30271.981 7.6579289e-05 
   37000    18.143924 -0.011816872    82.189849    299.70643          600          600          600 -0.0050342541    28805.846 7.6579289e-05 
   38000    20.490776 -0.030806735    75.145002    274.01729          600          600          600 -0.053638202    30634.588 7.6579289e-05 
   39000    19.145987  0.011042908    80.476601    293.45904          600          600          600 -0.0038069219    29968.733 7.6579289e-05 
   40000    17.325705 -0.00049800099    77.199381    281.50861          600          600          600 0.0064541823    29489.795 7.6579289e-05 
   41000    18.498979 0.0099700889    79.405831    289.55447          600          600          600  0.018326069    31663.728 7.6579289e-05 
   42000     20.92319  0.015516917    78.659913    286.83447          600          600          600  0.023577512    32204.917 7.6579289e-05 
   43000    21.129686  0.021168605    83.955073    306.14334          600          600          600  0.038115834    31639.603 7.6579289e-05 
   44000    18.867682  0.029184005    91.095409    332.18067          600          600          600  0.010834612    31015.618 7.6579289e-05 
   45000    31.449147 -0.013940206    82.811693    301.97399          600          600          600 -0.028816319    32362.458 7.6579289e-05 
   46000    27.366433 -0.0029549079    94.995356    346.40189          600          600          600 0.0082076267    33515.286 7.6579289e-05 
   47000    20.870611 -0.0024091509    81.765083    298.15751          600          600          600 -0.012838808    34280.633 7.6579289e-05 
   48000    22.632258 -0.0057401017    84.990336    309.91844          600          600          600  0.022173443    32744.976 7.6579289e-05 
   49000    30.220242 -0.037579199    86.944217    317.04329          600          600          600 -0.038128828    32648.883 7.6579289e-05 
   50000    24.734067  0.011071325    90.463865    329.87774          600          600          600  0.009989104    29692.086 7.6579289e-05 
   51000    16.352724 0.0092490561    77.882436    283.99938          600          600          600  0.015897611    31375.468 7.6579289e-05 
   52000    25.520884 -0.025338525    81.944375     298.8113          600          600          600 -0.031796266    31761.075 7.6579289e-05 
   53000    26.021649 0.0030210459    89.412047    326.04227          600          600          600 -0.00098382381    31589.799 7.6579289e-05 
   54000    21.831542  0.018959352    90.068535    328.43616          600          600          600  0.024839837    30586.557 7.6579289e-05 
   55000    31.745723 -0.014185277    93.637664    341.45104          600          600          600 -0.001259828    33637.045 7.6579289e-05 
   56000     27.94479 -0.015991268    82.742804    301.72278          600          600          600 -0.0013774727    32140.014 7.6579289e-05 
   57000    27.224766 0.0070212301    89.121842    324.98404          600          600          600  0.017826999    31862.411 7.6579289e-05 
   58000    28.780118 0.0040271152    77.471294    282.50015          600          600          600 -0.0068821757    32573.323 7.6579289e-05 
   59000    21.548184 -0.021287724    80.554675    293.74374          600          600          600 -0.0067048444    32996.657 7.6579289e-05 
   60000    25.304879 -0.0076693984    83.163846    303.25812          600          600          600 -0.011543066    31583.614 7.6579289e-05 
   61000    22.719341  0.016645716    91.189627    332.52424          600          600          600  0.019674585    30172.244 7.6579289e-05 
   62000    20.162832  0.020472749    85.001552    309.95934          600          600          600 0.0036707982    28879.231 7.6579289e-05 
   63000    20.615159  0.030522689    97.622476    355.98172          600          600          600  0.025407271    30070.575 7.6579289e-05 
   64000    19.312255  0.009314147    79.473701    289.80196          600          600          600  0.024329829    30219.853 7.6579289e-05 
   65000     21.55885 -0.0093966798    79.842727    291.14761          600          600          600 -0.0039107135    31802.496 7.6579289e-05 
   66000    14.353602 0.0093365351    91.222244    332.64318          600          600          600 -0.0054098116    30442.259 7.6579289e-05 
   67000    23.443527 0.0049423515    91.810003    334.78645          600          600          600  0.005698793    30282.909 7.6579289e-05 
   68000    24.916138 0.0013150143    79.172425    288.70335          600          600          600  0.018183524    29605.946 7.6579289e-05 
   69000    34.092803 -0.0013549056    80.256069    292.65487          600          600          600 -0.021478941    29691.245 7.6579289e-05 
   70000    17.103444 -0.0013803158    70.332342    256.46786          600          600          600 -0.0036559823     30136.69 7.6579289e-05 
   71000    16.418823 0.0016924625    75.747494    276.21429          600          600          600   0.02587654    31050.288 7.6579289e-05 
   72000     18.48488  0.019941821    95.068385    346.66818          600          600          600  0.011820375     30566.05 7.6579289e-05 
   73000     18.30943  -0.01503535    87.797442    320.15459          600          600          600 0.0094184644    28164.246 7.6579289e-05 
   74000    22.035984 0.0016523862    73.964222    269.71156          600          600          600 -0.0062758104     27812.58 7.6579289e-05 
   75000    16.598745  0.014647012    82.949739    302.47737          600          600          600   0.01925711    27383.683 7.6579289e-05 
   76000    29.867622 -0.0041823019     89.15642    325.11012          600          600          600 0.0087365136    29743.251 7.6579289e-05 
   77000     16.17262 -0.00022232471    78.593903    286.59376          600          600          600 -0.023601399    30804.457 7.6579289e-05 
   78000     21.99356 -0.0054365958    82.536434    300.97025          600          600          600 0.0049853037    27424.327 7.6579289e-05 
   79000    20.685249 0.0089840363    76.984449    280.72486          600          600          600  0.013034981    28644.922 7.6579289e-05 
   80000    15.520647 -0.0077466312    89.796065     327.4426          600          600          600 -0.026018154    26678.099 7.6579289e-05 
   81000     18.70906  0.016248165    95.952376    349.89167          600          600          600 0.0093917735    26074.899 7.6579289e-05 
   82000     19.12513 -0.0097270159    77.672857    283.23515          600          600          600 -0.023541539    27218.419 7.6579289e-05 
   83000    20.325715  0.013170607    82.412393    300.51793          600          600          600  0.011306979    29433.299 7.6579289e-05 
   84000    26.662903 -0.024316852    88.452934    322.54485          600          600          600 -0.0034639579    29906.977 7.6579289e-05 
   85000    27.043276 -0.0072499933    91.420375    333.36566          600          600          600 -0.0062802365    31401.072 7.6579289e-05 
   86000    22.381512 0.0041252817    76.864026    280.28574          600          600          600 0.0049925004    30091.502 7.6579289e-05 
   87000    18.040342 0.0038333656    79.589933    290.22579          600          600          600 -0.00010097236    30773.945 7.6579289e-05 
   88000    25.534589  0.025316598    89.711617    327.13466          600          600          600 0.0057164496    32023.699 7.6579289e-05 
   89000    27.888802 -0.012480429    88.482582    322.65296          600          600          600 -0.046792102     31048.22 7.6579289e-05 
   90000    20.831681  0.010418921    73.231513    267.03973          600          600          600  0.015491008    30808.077 7.6579289e-05 
   91000    14.926171  0.013719897    86.368746    314.94483          600          600          600 -0.0043469661    29667.303 7.6579289e-05 
   92000    20.669679  0.016241383    94.163295    343.36776          600          600          600  0.028848177    30500.924 7.6579289e-05 
   93000    25.002055 -0.015831322    90.850374    331.28715          600          600          600 -0.035450545    28893.356 7.6579289e-05 
   94000    12.669834  0.016477669    81.707893    297.94897          600          600          600 0.0059853106    28812.574 7.6579289e-05 
   95000    20.517136 0.0032309102    82.964649    302.53175          600          600          600 0.0062682812     29825.95 7.6579289e-05 
   96000     11.82787  0.001823986    83.475571    304.39483          600          600          600  0.009782666    29754.856 7.6579289e-05 
   97000    14.690243 0.0091124502    86.063802    313.83285          600          600          600  0.012645744    28831.587 7.6579289e-05 
   98000    23.584141 -0.011847583     92.18988    336.17168          600          600          600 -0.014100433    28379.393 7.6579289e-05 
   99000     25.48972 -0.0027881092    80.228981    292.55609          600          600          600  0.016083217    28224.515 7.6579289e-05 
  100000    27.174731  0.022428204    82.101359    299.38374          600          600          600  0.035490697    27706.206 7.6579289e-05 
  101000    26.953498 0.0066020144    87.999242    320.89046          600          600          600 -0.018433971    27962.772 7.6579289e-05 
  102000    21.724551  0.026010782    81.158694     295.9463          600          600          600  0.038325314    28194.348 7.6579289e-05 
  103000    19.479397 0.0091228263    94.814828    345.74359          600          600          600 0.0054375636    27229.375 7.6579289e-05 
  104000    20.141437 -0.017738602    86.758289     316.3653          600          600          600 -0.015235887    25226.468 7.6579289e-05 
  105000     18.44994 -0.0029856535    83.270152    303.64577          600          600          600 -0.015080653     25492.64 7.6579289e-05 
  106000    29.355769 -0.0094776515    87.175102    317.88522          600          600          600 -0.020837308    24739.026 7.6579289e-05 
  107000     20.96181  0.011642061    82.415402    300.52891          600          600          600  0.019220922    24508.601 7.6579289e-05 
  108000    20.236439 -0.018212497    81.658693    297.76956          600          600          600 -0.016398616    26387.236 7.6579289e-05 
  109000    26.634546  -0.01047951    83.717463    305.27689          600          600          600 -0.0053268157    25651.667 7.6579289e-05 
  110000    17.562978  0.019920766    74.273354    270.83882          600          600          600  0.004684479    26089.172 7.6579289e-05 
  111000    25.416349 -0.010148953    90.643256    330.53189          600          600          600 -0.035172493    27144.436 7.6579289e-05 
  112000    27.040736 -0.019304502     77.43775    282.37783          600          600          600 -0.011895451    26397.699 7.6579289e-05 
  113000    21.482213 -0.016357627    77.858682    283.91277          600          600          600 -0.032303848    26016.673 7.6579289e-05 
  114000    17.074164 -0.0087680961     80.02538    291.81366          600          600          600 -0.012759094    26182.817 7.6579289e-05 
  115000    22.463541 -0.0042263907    77.061039    281.00415          600          600          600 -0.0082688332    25805.702 7.6579289e-05 
  116000    20.457815 -0.0056033201    92.245886     336.3759          600          600          600  0.018414735    25333.736 7.6579289e-05 
  117000    15.782085 0.0066993686    77.566764    282.84828          600          600          600 -0.0038998454    25116.194 7.6579289e-05 
  118000    21.878368  0.018819313    94.922824    346.13739          600          600          600 -0.0040548075    28135.718 7.6579289e-05 
  119000    25.512722  0.021656065    80.197246    292.44037          600          600          600  0.017283681    26331.741 7.6579289e-05 
  120000    16.802096 -0.014805515     83.23779    303.52775          600          600          600 -0.018304525    27407.124 7.6579289e-05 
  121000    17.038759  0.017428942    85.718025    312.57197          600          600          600  0.006610601    27807.786 7.6579289e-05 
  122000    17.363251 -0.015096452    89.218411    325.33617          600          600          600 -0.034114732    26697.287 7.6579289e-05 
  123000    23.042118 -0.022431176    80.283343    292.75433          600          600          600 -0.021785019    26595.042 7.6579289e-05 
  124000    17.812823 -0.010909923    79.583637    290.20284          600          600          600 -0.0059755056    27505.797 7.6579289e-05 
  125000    23.665988 -0.018089842     92.70386    338.04591          600          600          600 -0.017380893    27179.088 7.6579289e-05 
  126000    18.587253  0.006926918     89.74203    327.24556          600          600          600  0.015126026    27698.521 7.6579289e-05 
  127000    20.875889  0.012478249    79.252943    288.99696          600          600          600  0.014245962    27669.468 7.6579289e-05 
  128000    22.600229 0.0084619871    77.072291    281.04518          600          600          600 -0.010015381     29002.24 7.6579289e-05 
  129000    25.677141 0.0095113582    82.672491    301.46638          600          600          600  0.010230031    30661.686 7.6579289e-05 
  130000    18.032966 -0.0005797164    84.025899    306.40161          600          600          600 -0.012827024    30846.141 7.6579289e-05 
  131000     20.95909 -0.011280442    78.576726    286.53112          600          600          600 0.00029007612    29338.388 7.6579289e-05 
  132000    23.356284 0.00097198865    82.600342    301.20329          600          600          600  0.015166767    28830.993 7.6579289e-05 
  133000    18.459677 -0.0050459967    87.958057    320.74028          600          600          600 0.0065931723    28550.937 7.6579289e-05 
  134000    28.721211  -0.01058569    84.782474    309.16047          600          600          600 -0.011355742        28131 7.6579289e-05 
  135000    16.853787  0.027616668    71.089936    259.23044          600          600          600  0.030291312    27880.059 7.6579289e-05 
  136000    22.139966 0.0054763183    85.891309    313.20385          600          600          600    0.0241168    26836.847 7.6579289e-05 
  137000    25.732045   0.01137878    80.915437    295.05926          600          600          600  0.010140013    27571.794 7.6579289e-05 
  138000    21.693559 -0.0015401081    77.577034    282.88573          600          600          600 -0.0036165717    29940.281 7.6579289e-05 
  139000    26.974715 -0.0068115891    81.941766    298.80179          600          600          600 -0.026956472    29676.119 7.6579289e-05 
  140000    25.460428  0.024047352    83.704439     305.2294          600          600          600  0.014184245    29523.006 7.6579289e-05 
  141000    18.217927 -0.010151241    76.406839     278.6186          600          600          600 -0.033694833     29062.93 7.6579289e-05 
  142000     26.15258 -0.0056645581    93.844396    342.20489          600          600          600 -0.0011652432    28010.391 7.6579289e-05 
  143000    25.541787  0.024629042     90.99068    331.79878          600          600          600  0.017595473    27833.436 7.6579289e-05 
  144000    22.405394 -0.020511967    82.824933    302.02227          600          600          600 -0.020483801    26178.078 7.6579289e-05 
  145000    31.577468 -0.026119186    83.467058    304.36378          600          600          600 -0.020570208    26714.291 7.6579289e-05 
  146000    18.263887  0.010206582    73.396298    267.64062          600          600          600  0.022286624     26605.67 7.6579289e-05 
  147000    23.481838 -0.0079399292    77.890425    284.02852          600          600          600 -0.030819882     26191.81 7.6579289e-05 
  148000     26.90327 -0.0017462362    78.557453    286.46084          600          600          600 -0.0058014992    24851.453 7.6579289e-05 
  149000    20.397141 0.0051896488    79.901094    291.36045          600          600          600  0.013114444    22921.573 7.6579289e-05 
  150000     18.46795   0.01085285    89.520902    326.43921          600          600          600 0.0031669401    24428.949 7.6579289e-05 
  151000    29.518671 0.0073224518    88.341883     322.1399          600          600          600 0.0068519937    26061.452 7.6579289e-05 
  152000    19.842515 -0.0050779401    84.068146    306.55566          600          600          600 -0.016491979    19778.855 7.6579289e-05 
  153000    27.360214 -0.001332039    89.927406    327.92153          600          600          600 -0.024531336    26887.426 7.6579289e-05 
  154000    20.834483 -0.0033215944    81.483072    297.12915          600          600          600  0.011283038    29536.104 7.6579289e-05 
  155000    23.808377 -0.010805192    81.396304    296.81275          600          600          600 -0.011662049    29197.062 7.6579289e-05 
  156000    18.986069 -0.020478486    82.119232    299.44892          600          600          600 -0.032611693    28305.275 7.6579289e-05 
  157000    19.176762 -0.011188167    83.864847    305.81433          600          600          600 -0.036568793     26919.35 7.6579289e-05 
  158000     15.78916  0.016059913    81.618049    297.62135          600          600          600  0.024913282    25158.528 7.6579289e-05 
  159000    17.082574 0.0058367948    80.830577    294.74982          600          600          600 0.0042800267    24865.744 7.6579289e-05 
  160000    20.061556 -0.0032775737    80.218203    292.51679          600          600          600 0.0013975159    25143.899 7.6579289e-05 
  161000    18.614184 -0.00025105486    71.944835    262.34784          600          600          600 -0.0018250362     24773.95 7.6579289e-05 
  162000    17.524654 -0.00061411506    86.134996    314.09246          600          600          600 -0.0022148804    25683.868 7.6579289e-05 
  163000    17.651655  0.013990008    93.703098    341.68965          600          600          600  0.029638146    26045.107 7.6579289e-05 
  164000    18.450055  0.012541085    88.849058    323.98932          600          600          600  0.032507504    27194.595 7.6579289e-05 
  165000    19.927034 -0.015029091    71.133387    259.38888          600          600          600 0.0085073672    27852.104 7.6579289e-05 
  166000    30.526786 -0.0097544963    72.116099    262.97235          600          600          600 -0.025386804    28440.587 7.6579289e-05 
  167000    20.629334  0.016797622    82.876538    302.21044          600          600          600  0.020017959    28996.426 7.6579289e-05 
  168000    26.422682 -0.028054281    85.148174      310.494          600          600          600 -0.024704127    26311.588 7.6579289e-05 
  169000    16.241956 0.0078527652    72.142073    263.06707          600          600          600  0.018094558    27063.518 7.6579289e-05 
  170000    17.703493 -0.0010862154    82.911739    302.33881          600          600          600  0.015850556    27019.758 7.6579289e-05 
  171000     20.41971 -0.018777654    79.408555     289.5644          600          600          600 -0.029741847    26755.189 7.6579289e-05 
  172000    16.590692  0.005539388    89.761502    327.31656          600          600          600  0.021815255    25513.419 7.6579289e-05 
  173000    20.000113  0.021610504    88.568922     322.9678          600          600          600  0.024812433    24528.524 7.6579289e-05 
  174000    16.734029 -0.027780752    71.002229    258.91061          600          600          600 -0.029268922    25138.172 7.6579289e-05 
  175000    21.209276  -0.03727677    69.930656    255.00311          600          600          600 -0.060414637    26410.997 7.6579289e-05 
  176000    19.591327 -0.030530081    93.866061    342.28389          600          600          600 -0.041552899     24810.88 7.6579289e-05 
  177000    26.585723  0.016232582    86.058644    313.81404          600          600          600  0.011986785    26755.189 7.6579289e-05 
  178000     14.75924 -0.002883722    83.539074    304.62639          600          600          600 0.0030941714    26665.887 7.6579289e-05 
  179000    21.331881 0.0037666919    88.311684    322.02978          600          600          600  0.013346371    27284.285 7.6579289e-05 
  180000     26.93609  0.011638729    82.884085    302.23797          600          600          600  0.022062608    25990.234 7.6579289e-05 
  181000    27.583505 0.0035609447    88.389638    322.31404          600          600          600 0.0075131709     25492.02 7.6579289e-05 
  182000    20.066287 0.0054541788    86.960177    317.10149          600          600          600 0.0089033355    26049.798 7.6579289e-05 
  183000    23.674308 -0.005163119    81.548824    297.36892          600          600          600 -0.025717323    25728.138 7.6579289e-05 
  184000     18.24131 -0.0073262404    82.601468     301.2074          600          600          600 -0.011595028    25575.492 7.6579289e-05 
  185000    18.479633  0.017430908     92.57914    337.59112          600          600          600  0.037195402    25632.385 7.6579289e-05 
  186000    20.530306  0.015173167    84.263472    307.26792          600          600          600  0.011380989    27222.836 7.6579289e-05 
  187000    29.254156 -0.002694187    83.686596    305.16434          600          600          600 -0.0092982186    28168.975 7.6579289e-05 
  188000    13.367763  0.014768584     103.9531    379.06642          600          600          600 -0.0074208649    26686.586 7.6579289e-05 
  189000    23.836102 0.0023844455    93.317771    340.28455          600          600          600 -0.013143386    25884.694 7.6579289e-05 
  190000     18.64128 0.0080860481    84.191418    307.00518          600          600          600  0.012294061    27338.704 7.6579289e-05 
  191000    17.229454 -0.016653118    79.624993    290.35364          600          600          600 0.0082290507    26383.917 7.6579289e-05 
  192000    19.844238 -0.035028019    83.834475    305.70358          600          600          600 -0.030140224    24940.116 7.6579289e-05 
  193000    24.295142 -0.0028393033     84.05202    306.49686          600          600          600 -0.025006978    25213.124 7.6579289e-05 
  194000    22.678396 -0.015415317    80.821315    294.71605          600          600          600 0.0037231455    24930.184 7.6579289e-05 
  195000    20.043092 0.0062388363    75.052617    273.68041          600          600          600 0.0069930451     25586.57 7.6579289e-05 
  196000    15.993273  0.009973973    75.875936    276.68265          600          600          600  0.030453669    27347.082 7.6579289e-05 
  197000    20.369225 -0.018112761    93.540225    341.09573          600          600          600 -0.023766511    28165.759 7.6579289e-05 
  198000     24.56428 -0.0034919276     86.19378    314.30682          600          600          600  0.013172265    28050.479 7.6579289e-05 
  199000    18.853055 0.0022427893    90.558462    330.22269          600          600          600 -0.013830016    27405.512 7.6579289e-05 
  200000    22.014008 -0.0035479327    75.145003     274.0173          600          600          600 -0.028330885    26310.268 7.6579289e-05 
  201000    17.264726  0.018449362    88.056642    321.09977          600          600          600  0.015925506     27586.12 7.6579289e-05 
  202000     26.97632   0.00358698    75.869363    276.65869          600          600          600 0.0040867593    27681.703 7.6579289e-05 
  203000    29.031897  0.019547861    86.902641    316.89169          600          600          600 -0.0048363166    30433.203 7.6579289e-05 
  204000    30.290061  0.015147537    78.826999    287.44374          600          600          600  0.024184871    29721.121 7.6579289e-05 
  205000    17.420286 -0.0028401736    86.997018    317.23583          600          600          600 -0.0032186128    29018.293 7.6579289e-05 
  206000    16.824351  0.026577482    85.002758    309.96374          600          600          600  0.029396872    27979.001 7.6579289e-05 
  207000    16.833168 0.0056285167    84.555316    308.33213          600          600          600 0.0044024669    25215.094 7.6579289e-05 
  208000    25.019267 -0.015679236    83.472646    304.38416          600          600          600 -0.020553407    24998.683 7.6579289e-05 
  209000     20.06715 0.0029856413    78.714861    287.03483          600          600          600 -0.0082723447    25436.828 7.6579289e-05 
  210000    18.342904 -0.011651048    94.228864    343.60686          600          600          600 0.0021616684    23906.388 7.6579289e-05 
  211000     25.83896 -0.019283069     78.55078    286.43651          600          600          600 -0.029465443    24799.144 7.6579289e-05 
  212000    23.981857 -0.017888382    96.069818    350.31992          600          600          600 -0.012342773    24486.281 7.6579289e-05 
  213000    11.764134 -0.018892261    78.844292    287.50681          600          600          600 -0.0078623577    23988.973 7.6579289e-05 
  214000    21.919123  0.007344746    73.316439    267.34941          600          600          600 0.0061050534    25594.376 7.6579289e-05 
  215000    26.437681 -0.011586341    78.632987    286.73628          600          600          600 -0.0078551162     27707.67 7.6579289e-05 
  216000    30.105029 0.0095915476    70.128456    255.72439          600          600          600  0.024801537    26842.171 7.6579289e-05 
  217000      29.5844 -0.0035127362    76.573753    279.22725          600          600          600 0.0066203364    26348.282 7.6579289e-05 
  218000      26.9453 -0.028695624    74.041398    269.99299          600          600          600 -0.040941696     28627.13 7.6579289e-05 
  219000    26.994583  0.010704099    93.002062    339.13331          600          600          600 0.0025315187    27153.223 7.6579289e-05 
  220000    20.182377 -0.0096211068    88.044972    321.05721          600          600          600 -0.0047298737    27982.174 7.6579289e-05 
  221000    25.907603 0.00063747246    83.314688    303.80817          600          600          600  0.016195038    27315.025 7.6579289e-05 
  222000    21.257104 -0.021453083    77.080612    281.07552          600          600          600  -0.02400979    26266.605 7.6579289e-05 
  223000    16.214035  0.016904037    79.110812    288.47867          600          600          600  0.014092439    26525.914 7.6579289e-05 
  224000    23.655937 -0.0039993708    77.467837    282.48754          600          600          600 -0.010001981    26257.725 7.6579289e-05 
  225000    18.463178 0.0051129073    90.494912    329.99095          600          600          600  0.013738889    24627.612 7.6579289e-05 
  226000    21.135352 0.0083279281    86.819679    316.58916          600          600          600  0.018897425    22569.679 7.6579289e-05 
  227000    12.455158 -0.0011740165    90.273148    329.18229          600          600          600 -0.00060070384    20716.398 7.6579289e-05 
  228000    23.593924 0.0048536404    85.009358     309.9878          600          600          600 -0.029137326     20300.88 7.6579289e-05 
  229000     21.65756 -0.014921902     69.13049    252.08529          600          600          600  0.020953998    20128.827 7.6579289e-05 
  230000    21.588954 -0.0094288735    92.010795    335.51864          600          600          600  -0.02155112    21122.865 7.6579289e-05 
  231000    18.575754 0.0033042913     88.08965    321.22013          600          600          600 -0.0014586233    22680.863 7.6579289e-05 
  232000    20.272497 -0.020493576     98.26367    358.31984          600          600          600 -0.038622766    22550.506 7.6579289e-05 
  233000     19.41724  0.020080133    83.397655    304.11071          600          600          600 0.0089294922    26524.572 7.6579289e-05 
  234000    20.703851  0.017863874    81.318299    296.52831          600          600          600  0.020139318    25775.096 7.6579289e-05 
  235000    24.563887  0.026564133    101.08322    368.60137          600          600          600  0.038521707    25621.268 7.6579289e-05 
  236000    20.834193 0.0079463362    80.144959    292.24971          600          600          600  0.027222986    25780.641 7.6579289e-05 
  237000    27.910251 -0.0082788192    82.948707    302.47361          600          600          600 0.0074126717    25065.761 7.6579289e-05 
  238000    23.442581 0.0044112519    81.555751    297.39418          600          600          600  0.020836253    27429.528 7.6579289e-05 
  239000    24.396573 -0.0030829188    99.265673    361.97365          600          600          600 -0.0020536143    28999.834 7.6579289e-05 
  240000    20.105454 0.0089815551    79.975887    291.63318          600          600          600 -0.011285678    28964.588 7.6579289e-05 
  241000    26.697312 0.0021147902    75.084862    273.79799          600          600          600 -0.0030315397    28404.955 7.6579289e-05 
  242000    28.622676 -0.018752243    97.581454    355.83213          600          600          600 -0.015897705    27106.194 7.6579289e-05 
  243000    13.107944 0.00057390834    88.660225    323.30074          600          600          600 0.0061200693    24570.625 7.6579289e-05 
  244000     17.79006 -0.018526053      92.5378    337.44037          600          600          600 -0.034039102     23017.55 7.6579289e-05 
  245000    21.964579  0.014010345    77.956025    284.26773          600          600          600  0.018144108    23412.116 7.6579289e-05 
  246000    22.409849  0.015405389    87.683558    319.73931          600          600          600  0.018445217    23018.687 7.6579289e-05 
  247000    23.062081  0.024067289    85.353245    311.24179          600          600          600  0.034287645    23074.914 7.6579289e-05 
  248000    16.404439  0.010074558    75.095013    273.83501          600          600          600  0.027952696    21937.999 7.6579289e-05 
  249000    27.290247 -0.013989924    78.449671    286.06781          600          600          600 0.00010238571    19982.011 7.6579289e-05 
  250000    18.403029  0.012352683    80.839902    294.78383          600          600          600 0.0054827761    20496.914 7.6579289e-05 
  251000     18.31556  -0.01568974    82.034504    299.13996          600          600          600 -0.021479078    21324.223 7.6579289e-05 
  252000    16.871569  0.013844418     87.99023     320.8576          600          600          600  0.046388397    21350.165 7.6579289e-05 
  253000    18.317174  0.010045258    79.115567    288.49601          600          600          600  0.021699478    21297.478 7.6579289e-05 
  254000    15.220841 0.0066704789    86.164727    314.20087          600          600          600  0.019499408    21014.073 7.6579289e-05 
  255000     20.22566 -0.022124044    81.670571    297.81287          600          600          600 -0.025495647     24679.78 7.6579289e-05 
  256000    28.763808 0.0012839925    74.900761    273.12667          600          600          600  0.015697433    26248.852 7.6579289e-05 
  257000    20.159851 -0.0020237382    75.812615    276.45175          600          600          600 0.0045930101    25358.242 7.6579289e-05 
  258000     20.69655  0.004779345    84.849349    309.40433          600          600          600 -0.0063310173    24891.716 7.6579289e-05 
  259000    23.898341 -0.0020401584    81.661736    297.78065          600          600          600 0.0056961567    24879.904 7.6579289e-05 
  260000    27.687674 0.0027268373    98.270308    358.34404          600          600          600 -0.019893165    22190.206 7.6579289e-05 
  261000    22.848985 -0.025311451     80.21783    292.51543          600          600          600  0.011310958    23265.498 7.6579289e-05 
  262000    15.689269  0.022228763    81.713013    297.96764          600          600          600  0.019622715    24519.347 7.6579289e-05 
  263000    17.710999 -0.011890558    77.334999    282.00315          600          600          600 0.0028400458    25306.223 7.6579289e-05 
  264000    14.990901 0.0096251819    90.237593    329.05264          600          600          600 -0.0033327119    25178.161 7.6579289e-05 
  265000    17.120984 -0.0030059148    84.255783    307.23988          600          600          600 0.0062441057    24886.842 7.6579289e-05 
  266000    17.083081 -0.0086626591    81.175155    296.00633          600          600          600 -0.013118176    25329.911 7.6579289e-05 
  267000    17.562391 -0.019019026    76.208594     277.8957          600          600          600 -0.032562743    25063.215 7.6579289e-05 
  268000     22.89482 -0.0051581231    80.837863    294.77639          600          600          600 -0.016675322    25489.386 7.6579289e-05 
  269000    20.577973 0.0018547718      73.5386    268.15953          600          600          600 -0.0064724153    24420.131 7.6579289e-05 
  270000    23.093799 -0.005556323     88.36238    322.21465          600          600          600 -0.004901267    26124.597 7.6579289e-05 
  271000    19.540932 -0.014986821    83.308188    303.78447          600          600          600  -0.02763075    23928.073 7.6579289e-05 
  272000    20.199344 -0.019019305    76.855741    280.25553          600          600          600 -0.027787504     25157.17 7.6579289e-05 
  273000    24.109407   0.02674504    76.405312    278.61303          600          600          600  0.020823569    26385.244 7.6579289e-05 
  274000     22.83338 -0.023032168    76.035338    277.26392          600          600          600 -0.025917421    26327.609 7.6579289e-05 
  275000    21.096153   0.05218824    82.247897     299.9181          600          600          600  0.048198062    24907.237 7.6579289e-05 
  276000    23.767527  0.010183332    74.127147    270.30567          600          600          600 -0.003296159    24909.604 7.6579289e-05 
  277000    19.636153 -0.0048302972    79.958441    291.56956          600          600          600 -0.0067382463    23767.128 7.6579289e-05 
  278000    7.9080473  0.017147425    72.060451    262.76943          600          600          600  0.029258633    22451.164 7.6579289e-05 
  279000    21.919114 -0.0028923318     70.65417    257.64141          600          600          600 -0.017599878     24242.43 7.6579289e-05 
  280000    22.642395 -0.0017219175    80.949495    295.18346          600          600          600 -0.001734878    26344.972 7.6579289e-05 
  281000     11.91156 0.0043356593    76.462989    278.82335          600          600          600 0.0076016035     26485.88 7.6579289e-05 
  282000    23.309617 -0.00078770656     85.43129    311.52638          600          600          600  0.011087962    25635.048 7.6579289e-05 
  283000    20.265535   0.03083272    77.457913    282.45135          600          600          600  0.029762492    26399.859 7.6579289e-05 
  284000    23.089212  0.012592481     89.44876    326.17614          600          600          600  0.017959887    25933.668 7.6579289e-05 
  285000    26.060226 0.0078631287    85.456346    311.61775          600          600          600 0.0075549029    24992.427 7.6579289e-05 
  286000    15.325113  0.013204158    77.464569    282.47563          600          600          600 -0.0035464387    25501.164 7.6579289e-05 
  287000    22.217838  0.018244559    89.778346    327.37799          600          600          600  0.029446324    26852.826 7.6579289e-05 
  288000    19.390235 0.0017712784    77.020767     280.8573          600          600          600 0.0039474144    26689.473 7.6579289e-05 
  289000    24.870621  -0.02260459    90.345023    329.44438          600          600          600 -0.019989798    28449.461 7.6579289e-05 
  290000    21.285417  0.005493051    78.620795    286.69182          600          600          600  0.014735767    28700.981 7.6579289e-05 
  291000      22.7928 0.0066818875    76.660714    279.54436          600          600          600 0.0030052955    30509.132 7.6579289e-05 
  292000    23.486951 -0.026575239    84.949536    309.76966          600          600          600 -0.025503767    30565.159 7.6579289e-05 
  293000    21.260873 -0.020751829    69.217723    252.40339          600          600          600 0.00071300169    30635.483 7.6579289e-05 
  294000    20.006547 -0.0040737371    78.406312    285.90971          600          600          600 0.0078847796    28848.443 7.6579289e-05 
  295000    25.708267 -0.0019197851    88.431177    322.46551          600          600          600  0.011580869    29782.111 7.6579289e-05 
  296000     16.41941 0.00013225373    78.909237    287.74363          600          600          600 -0.0047865568    30164.215 7.6579289e-05 
  297000    22.310192  0.013624928    77.280351    281.80387          600          600          600 0.0073816881    31147.826 7.6579289e-05 
  298000    29.982658 -0.014035223    83.073303    302.92795          600          600          600 -0.016577471    30162.263 7.6579289e-05 
  299000    22.842029 -0.0018648851    82.351616    300.29631          600          600          600 -0.0010991819    30029.885 7.6579289e-05 
  300000    25.933777 -0.0021127068    88.863957    324.04365          600          600          600 -0.021377782    28037.166 7.6579289e-05 
  301000     24.67445 0.0088731291    81.275497    296.37223          600          600          600 0.0011580651    28300.501 7.6579289e-05 
  302000    19.441371 -0.0046885702    68.093561    248.30412          600          600          600 0.0059957523    30115.052 7.6579289e-05 
  303000    18.686711 0.0054991753    85.706603    312.53032          600          600          600  0.018203515    30085.243 7.6579289e-05 
  304000    21.942437  0.022097461    74.303052    270.94711          600          600          600 0.0093072046    29528.203 7.6579289e-05 
  305000    18.608585 0.0014344997     81.77228    298.18375          600          600          600 0.0089637416    31216.677 7.6579289e-05 
  306000    24.335708  0.019561444    81.999731    299.01316          600          600          600  0.020097749    29537.768 7.6579289e-05 
  307000    22.450153  0.014925477    89.028005    324.64186          600          600          600  0.026850908    28302.983 7.6579289e-05 
  308000    12.010417 0.00046523567    72.607977      264.766          600          600          600 -0.012189522    25396.167 7.6579289e-05 
  309000    23.731606  0.037067269    80.634911    294.03632          600          600          600  0.025561226    23522.803 7.6579289e-05 
  310000     16.50116 -0.00032117087    77.753096    283.52774          600          600          600 -0.0087991713    22227.131 7.6579289e-05 
  311000    17.558382 0.00043199101    75.562506    275.53973          600          600          600  0.030367216    23790.316 7.6579289e-05 
  312000    21.855796  0.004093369    82.996088    302.64639          600          600          600 0.0092254816    26172.524 7.6579289e-05 
  313000    31.606812 -0.0071787306     91.33204    333.04355          600          600          600    0.0197938    24350.944 7.6579289e-05 
  314000     18.71935 -0.019864992    74.860511    272.97989          600          600          600 -0.025481874    24570.625 7.6579289e-05 
  315000    12.488775  0.009559906    76.925872    280.51126          600          600          600 0.0061398385    25654.961 7.6579289e-05 
  316000    18.879664  0.010393572    83.525585    304.57721          600          600          600  0.017169372    24298.325 7.6579289e-05 
  317000    22.133448 -0.0045602904    81.484369    297.13388          600          600          600 0.0040419384    24497.865 7.6579289e-05 
  318000    13.084308 0.0059889139    97.175855     354.3531          600          600          600 -0.0038138165    26143.649 7.6579289e-05 
  319000    17.948682 -0.00047502891    80.043353     291.8792          600          600          600  0.015356202    26938.369 7.6579289e-05 
  320000    22.494456 0.0041095699    102.92634    375.32231          600          600          600 0.0036232282    23626.022 7.6579289e-05 
  321000    22.909046  0.014445281    86.046596    313.77011          600          600          600 0.0031191774    20970.996 7.6579289e-05 
  322000    19.448429  0.017228738    77.639644    283.11404          600          600          600  0.013177397    22474.984 7.6579289e-05 
  323000    13.879359  0.026382979    82.276428    300.02214          600          600          600 0.0041163748     23340.98 7.6579289e-05 
  324000    15.885168  0.027754336    85.875029    313.14449          600          600          600  0.017890147    24097.025 7.6579289e-05 
  325000    20.179686   0.03066577    78.791793    287.31537          600          600          600  0.020320759    24417.003 7.6579289e-05 
  326000     24.85212 -0.0062089518    78.642513    286.77101          600          600          600 0.0023045392    23860.013 7.6579289e-05 
  327000    16.567837  0.021201892     81.03548      295.497          600          600          600  0.010000594    22676.817 7.6579289e-05 
  328000    20.984579  0.014191886     85.07398    310.22345          600          600          600  0.017888861    22174.486 7.6579289e-05 
  329000    15.151771 0.0038014567    80.376577     293.0943          600          600          600 -0.006754417    22872.823 7.6579289e-05 
  330000    16.826194  0.026328544    78.374253     285.7928          600          600          600  0.018092892    23771.574 7.6579289e-05 
  331000    9.6613022 0.0037338768    71.406249    260.38388          600          600          600  0.014043007    21906.718 7.6579289e-05 
  332000    17.023172  0.029897917    78.725303    287.07291          600          600          600  0.032432394    22557.541 7.6579289e-05 
  333000    21.922424 0.0086176505    93.412178     340.6288          600          600          600 -0.017312744    22530.156 7.6579289e-05 
  334000    17.167737 -0.0098213817    68.327258    249.15629          600          600          600 -0.019294514    21755.253 7.6579289e-05 
  335000    22.570463  0.033903094    80.985575    295.31502          600          600          600  0.038440737    21762.816 7.6579289e-05 
  336000    28.902096  0.014633142    80.901381    295.00801          600          600          600 0.0042994413    23457.551 7.6579289e-05 
  337000    24.731999 0.0073338208    79.884623    291.30039          600          600          600 0.0045031723    23178.841 7.6579289e-05 
  338000    13.414796   0.01994464    87.151308    317.79845          600          600          600  0.014512117    21870.735 7.6579289e-05 
  339000    9.6927755 -0.0036112089    74.851212    272.94598          600          600          600 -0.012084888    21516.975 7.6579289e-05 
  340000    23.435882 -0.011727691    75.951397    276.95782          600          600          600 -0.021517923      22173.9 7.6579289e-05 
  341000    11.702479  0.012770096    72.360702    263.86431          600          600          600  0.025129387    20669.742 7.6579289e-05 
  342000    23.543494 -0.004805052    82.541542    300.98888          600          600          600 -0.029233604    21601.084 7.6579289e-05 
  343000    19.080456  0.024021744    77.930926     284.1762          600          600          600  0.035004334     23846.99 7.6579289e-05 
  344000    18.800097  0.011016245    85.706657    312.53051          600          600          600 0.0056483113    23440.116 7.6579289e-05 
  345000    17.325523 -0.022217878    94.677141    345.24151          600          600          600 -0.042392028    20581.602 7.6579289e-05 
  346000    19.233086 0.0073903375    77.046704    280.95187          600          600          600 -0.019247956    21425.636 7.6579289e-05 
  347000    24.138062 -0.030065834    80.503219    293.55611          600          600          600 -0.034815714    23308.422 7.6579289e-05 
  348000     16.42459  0.014944726    84.635482    308.62446          600          600          600  0.016551669    22948.913 7.6579289e-05 
  349000    29.412819 0.0080356932    82.151898    299.56804          600          600          600 0.0064864074    23936.676 7.6579289e-05 
  350000    15.802116  0.026076099    91.947286    335.28705          600          600          600 0.0059039642    24049.357 7.6579289e-05 
  351000    15.446725 -0.0021186668    81.816505    298.34502          600          600          600 -0.016107375    24910.935 7.6579289e-05 
  352000    25.582499  0.011179239    76.819378    280.12293          600          600          600 -0.018116912    24520.064 7.6579289e-05 
  353000    25.618083 -0.024222037    77.250606    281.69541          600          600          600 0.0029196897    25501.164 7.6579289e-05 
  354000    19.074322 -0.017358298    88.952381    324.36609          600          600          600 -0.030796511    25781.116 7.6579289e-05 
  355000    21.985692 0.00027416533    80.805405    294.65803          600          600          600 -0.011810213    28203.259 7.6579289e-05 
  356000    27.432643 -0.00044877049    95.366242    347.75432          600          600          600 -0.0094799196    27967.993 7.6579289e-05 
  357000    19.243584 -0.0018198541    74.888449    273.08177          600          600          600 -0.0045407666    28465.679 7.6579289e-05 
  358000      18.0666 7.1649969e-05    76.175496      277.775          600          600          600 -0.0034377376    29369.409 7.6579289e-05 
  359000    25.315876 -0.0036589901    82.834016    302.05539          600          600          600 0.0081630986     29635.86 7.6579289e-05 
  360000    30.989465 -0.034702236    78.215718     285.2147          600          600          600 -0.010138007    29885.455 7.6579289e-05 
  361000     19.24688 0.0051564345    92.302481    336.58228          600          600          600 0.0046012299    29258.776 7.6579289e-05 
  362000    20.109602 -0.0074995665    77.549851    282.78661          600          600          600 -0.010141767    27627.367 7.6579289e-05 
  363000    24.488662 0.0028762822    86.807255    316.54386          600          600          600 -0.0030136348    25738.558 7.6579289e-05 
  364000    22.652891 -0.035109002    73.788527    269.07089          600          600          600 -0.034715774    25974.139 7.6579289e-05 
  365000    21.050446  0.032488938    93.051128    339.31223          600          600          600  0.053219981     26869.34 7.6579289e-05 
  366000     25.94444 -0.018394419    81.370866    296.71999          600          600          600 -0.021913288    27135.656 7.6579289e-05 
  367000    21.573008 -0.018002239    73.231723     267.0405          600          600          600  -0.02342466     26760.14 7.6579289e-05 
  368000     23.00789  0.012096407    73.577386    268.30096          600          600          600 0.0057689088    26941.829 7.6579289e-05 
  369000    29.206746 -0.0020244605    97.286713    354.75735          600          600          600 -0.031223684    26814.029 7.6579289e-05 
  370000     26.46838 0.0088286608    89.178449    325.19045          600          600          600 0.0081785129    27092.187 7.6579289e-05 
  371000    22.501816 -0.0061546589    84.823337    309.30948          600          600          600 -0.017943147    28449.461 7.6579289e-05 
  372000     22.05583 0.0064443494    79.714425    290.67976          600          600          600 -0.014107308    29113.767 7.6579289e-05 
  373000    15.052235 0.0073792941    88.128908    321.36329          600          600          600 0.0037716697    28865.915 7.6579289e-05 
  374000    25.990611 0.0024952962    82.593717    301.17913          600          600          600 -0.014687628    27860.429 7.6579289e-05 
  375000    17.621367 -0.012623886    86.779464    316.44252          600          600          600 -0.021196173    27343.338 7.6579289e-05 
  376000    26.444208 0.0038083505    79.402488    289.54227          600          600          600  0.011611386    27494.438 7.6579289e-05 
  377000    22.778406  0.026628819    81.027135    295.46657          600          600          600   0.02016978    27270.271 7.6579289e-05 
  378000    21.401231  0.017304144    81.712169    297.96456          600          600          600  0.026288802     26212.27 7.6579289e-05 
  379000    26.014065 -0.003594139    93.074057    339.39584          600          600          600  0.005709162    25633.795 7.6579289e-05 
  380000    29.649649 -0.0067168036    77.191667    281.48048          600          600          600 -0.0039332006    26009.252 7.6579289e-05 
  381000    18.747748 -0.0062493893    78.390871     285.8534          600          600          600 -0.001656692    25195.857 7.6579289e-05 
  382000    18.596277  0.010456801    96.113404    350.47886          600          600          600  0.025802986    25806.496 7.6579289e-05 
  383000    18.139615 -0.011512667    86.676307    316.06636          600          600          600 -0.018051794    25685.755 7.6579289e-05 
  384000    17.679155 0.0071071272     76.71917    279.75752          600          600          600  0.015946467    26032.821 7.6579289e-05 
  385000    21.866726 0.0089872395    78.193527    285.13378          600          600          600  0.010572667    25404.627 7.6579289e-05 
  386000     20.14526 -0.0021259018      70.5687    257.32974          600          600          600 -0.00041821022    26775.173 7.6579289e-05 
  387000    18.083896 -0.0037799254    73.760227    268.96769          600          600          600 0.0022658705    25889.327 7.6579289e-05 
  388000    16.761144 0.0017194138    84.856063    309.42881          600          600          600 -0.0051283387     25887.25 7.6579289e-05 
  389000    18.863809 -0.018036932    83.828655    305.68235          600          600          600 -0.018392877    26043.813 7.6579289e-05 
  390000     14.35842 -0.0073447597    78.918304    287.77669          600          600          600 -0.0054642622    24719.343 7.6579289e-05 
  391000     28.72157 -0.0084569907    86.183139    314.26801          600          600          600 0.0027608145    24409.898 7.6579289e-05 
  392000    19.155669  0.020329822    80.441082    293.32952          600          600          600  0.016151648    26624.078 7.6579289e-05 
  393000    16.855312 -0.0045178102    89.155619     325.1072          600          600          600 0.00043750788     25370.36 7.6579289e-05 
  394000    24.703363 -0.0015955754    96.037849    350.20335          600          600          600 0.0043355329    23909.795 7.6579289e-05 
  395000    28.855285 -0.00089159688    93.814635    342.09637          600          600          600 0.0040688477    21874.157 7.6579289e-05 
  396000    16.135755  0.025687856    82.077403    299.29639          600          600          600  0.052460028    22118.473 7.6579289e-05 
  397000    15.175639  -0.00947474    74.922787    273.20698          600          600          600 -0.013781939    23892.633 7.6579289e-05 
  398000     20.48903  0.010162906    90.343651    329.43938          600          600          600 0.0051770166    25303.628 7.6579289e-05 
  399000    13.835551 -0.0054865336    92.140403    335.99126          600          600          600 0.0051023236    25637.085 7.6579289e-05 
  400000     28.36398 0.0025085287    95.795569    349.31987          600          600          600  0.010187321    25925.493 7.6579289e-05 
  401000    22.563661 -0.029030822    82.034015    299.13817          600          600          600 -0.025799191    26227.514 7.6579289e-05 
  402000    22.854342 -0.0094386106    86.360008    314.91297          600          600          600 -0.0012233212    25152.795 7.6579289e-05 
  403000    20.853649 0.0077969275     81.51429    297.24299          600          600          600 0.0062370574    25865.858 7.6579289e-05 
  404000    15.012764 -0.0017681705    83.892308    305.91446          600          600          600 0.0049660014    27163.598 7.6579289e-05 
  405000    24.404531 -0.005211283    86.870981    316.77624          600          600          600 -0.021642855    27548.252 7.6579289e-05 
  406000    19.999529  0.014014305    82.443127    300.63001          600          600          600  0.030106577    27776.112 7.6579289e-05 
  407000    27.049355 0.0042214149     88.69322    323.42106          600          600          600  0.007552056    27646.488 7.6579289e-05 
  408000    25.467785  0.014494323     88.69123     323.4138          600          600          600  0.008710063    28333.383 7.6579289e-05 
  409000    16.310378 -0.026501272    84.965507     309.8279          600          600          600 -0.017813699    30175.934 7.6579289e-05 
  410000    16.840887 -0.0020943229    82.976707    302.57571          600          600          600 -0.0030021178    28192.832 7.6579289e-05 
  411000    17.706295 -0.0067103715    81.214328    296.14917          600          600          600 -0.0010305012    27386.008 7.6579289e-05 
  412000    23.393911 -0.022556742    87.794907    320.14535          600          600          600 -0.011680032    26540.685 7.6579289e-05 
  413000    18.515612 -0.012951435    83.110497    303.06358          600          600          600  -0.01196816    27216.123 7.6579289e-05 
  414000    16.695398 0.0026962242    81.660548    297.77632          600          600          600 -0.022237493    26150.006 7.6579289e-05 
  415000    17.930381 -0.028098828    73.006004    266.21741          600          600          600 -0.022598989    26977.353 7.6579289e-05 
  416000    16.781784 -0.003262333    99.018988    361.07412          600          600          600  -0.02390163    28115.914 7.6579289e-05 
  417000    24.153821 -0.0061208214     80.93049    295.11415          600          600          600 -0.026104975    27618.271 7.6579289e-05 
  418000    17.492551  0.012562031    81.795187    298.26728          600          600          600  0.024855215    28430.177 7.6579289e-05 
  419000     16.28363 -0.0027283935    90.837849    331.24148          600          600          600 -0.0040963568     29486.27 7.6579289e-05 
  420000    27.456576  0.023301749    85.811401    312.91246          600          600          600  0.015733178    29184.264 7.6579289e-05 
  421000    27.602154 -0.041250534    90.090148    328.51497          600          600          600 -0.018169403    28268.647 7.6579289e-05 
  422000     25.74658 -0.0034872389    79.313146    289.21649          600          600          600 -0.0085506749    27201.121 7.6579289e-05 
  423000    19.262221 -0.0036608245    89.150551    325.08872          600          600          600 -0.0078472091    26881.739 7.6579289e-05 
  424000    21.233102   0.01516172    83.361414    303.97855          600          600          600  0.011859201    25624.711 7.6579289e-05 
  425000    21.365204 0.0072874549     76.33729    278.36499          600          600          600  0.031427109    25717.411 7.6579289e-05 
  426000    17.924785 0.0015136907     75.98558    277.08247          600          600          600 -0.007064696    26910.024 7.6579289e-05 
  427000    17.430868 -0.011880037    79.115328    288.49514          600          600          600 0.0033640317    26971.628 7.6579289e-05 
  428000    15.823339  0.013214875    86.916075    316.94068          600          600          600  0.020508495    25766.545 7.6579289e-05 
  429000    24.869283 -0.015806677    88.648799    323.25908          600          600          600 -0.017253927     23549.35 7.6579289e-05 
  430000    20.922288    0.0171097     87.87222    320.42727          600          600          600  0.010363832    24111.986 7.6579289e-05 
  431000    22.167653  0.029025027     73.98569    269.78984          600          600          600  0.028891417    22874.445 7.6579289e-05 
  432000    20.588388 0.0017535002    86.549067    315.60237          600          600          600 0.0069488408    22772.853 7.6579289e-05 
  433000    25.100101 -0.0027969362    77.167746    281.39326          600          600          600 -0.0074458186    25612.819 7.6579289e-05 
  434000    28.658582 -0.0033195985    94.497299    344.58571          600          600          600 -0.027597812    23360.089 7.6579289e-05 
  435000    22.641693 -0.019736779    84.638047    308.63381          600          600          600 -0.0058070244    25733.979 7.6579289e-05 
  436000    27.426744 -0.030814356     90.52884    330.11467          600          600          600 -0.0080429562    25190.259 7.6579289e-05 
  437000    21.527539 0.0052741401    91.879019    335.03812          600          600          600  0.010036196    26218.497 7.6579289e-05 
  438000    15.726763  0.014637071    73.027051    266.29416          600          600          600  0.021165839    26087.225 7.6579289e-05 
  439000      20.9715 -0.019998538    72.022849    262.63232          600          600          600 0.0023308148    25306.834 7.6579289e-05 
  440000    15.670546 -0.022305037    98.666498    359.78875          600          600          600  -0.03879554    24967.433 7.6579289e-05 
  441000    27.975515 -0.017442679    82.800439    301.93295          600          600          600 -0.019680669    25849.279 7.6579289e-05 
  442000    16.998893 -0.003444134    79.953062    291.54995          600          600          600 -0.0033408219    25659.356 7.6579289e-05 
  443000    18.590004 -0.017909277     77.19303    281.48546          600          600          600 -0.026187136    26086.576 7.6579289e-05 
  444000    18.488759 0.0060681298    80.791073    294.60577          600          600          600  0.006233208    27599.189 7.6579289e-05 
  445000    23.872985  0.011153709    82.321094    300.18501          600          600          600  0.010011097     27232.38 7.6579289e-05 
  446000    16.778236 0.0076881726    80.125389    292.17834          600          600          600 -0.011151921    26563.881 7.6579289e-05 
  447000     27.38757  -0.03217845    79.283267    289.10753          600          600          600 -0.022473936    26651.654 7.6579289e-05 
  448000    14.080999  0.020052057    103.08124    375.88719          600          600          600  0.021414029    26392.218 7.6579289e-05 
  449000    19.048704 -0.013632155    105.20936    383.64739          600          600          600 -0.0043618975    27615.907 7.6579289e-05 
  450000    20.215113 -0.0036132047     88.73019    323.55587          600          600          600 -0.009777865    26755.872 7.6579289e-05 
  451000    15.311074 -0.024224545    73.971195    269.73699          600          600          600 -0.020401578    26235.717 7.6579289e-05 
  452000      21.1614 -0.017288155    82.119711    299.45067          600          600          600 -0.027062659    27564.908 7.6579289e-05 
  453000    21.792658 0.0093506107    86.228362    314.43292          600          600          600  0.015601057    27865.982 7.6579289e-05 
  454000    17.285053  0.023142949    73.891758    269.44732          600          600          600   0.03596851    27555.129 7.6579289e-05 
  455000    22.860762 -0.010316334    80.166894    292.32969          600          600          600 -0.010585977    28043.352 7.6579289e-05 
  456000     25.08639 -0.028232675    88.777396    323.72801          600          600          600 -0.039469905    26360.868 7.6579289e-05 
  457000    15.549007 -0.019680801    93.332303    340.33754          600          600          600 -0.012926871    26023.453 7.6579289e-05 
  458000    23.521012  0.021420247    89.483671    326.30345          600          600          600   0.02950523    26416.486 7.6579289e-05 
  459000    16.872442 -0.012184183    80.947767    295.17716          600          600          600   -0.0230228    27019.061 7.6579289e-05 
  460000    16.000286  0.021797012    83.823655    305.66412          600          600          600  0.021491271    27753.873 7.6579289e-05 
  461000    27.785968 -0.010639542    87.559692    319.28763          600          600          600 -0.0071218485      28319.8 7.6579289e-05 
  462000    30.943342 -0.012961066    93.044158    339.28681          600          600          600 -0.0064730166    29277.361 7.6579289e-05 
  463000    12.974647 0.0016097555    87.633951    319.55842          600          600          600 0.0066929501    29605.946 7.6579289e-05 
  464000    30.309045 -0.010202558    90.070005    328.44152          600          600          600 -0.019076603     30121.54 7.6579289e-05 
  465000    23.699159 0.0080542505    96.496053     351.8742          600          600          600 -0.009104183    29340.851 7.6579289e-05 
  466000    24.601975 -0.016158067    87.309986    318.37708          600          600          600 -0.020163031    30349.962 7.6579289e-05 
  467000    20.036649 -0.0065714979    84.728498    308.96365          600          600          600 -0.009061849    30727.727 7.6579289e-05 
  468000     20.50064 0.0059062206    83.883858    305.88365          600          600          600 0.0042201843     29817.68 7.6579289e-05 
  469000    20.607879 -0.019618462    76.599379     279.3207          600          600          600 -0.006938676    31036.732 7.6579289e-05 
  470000    25.655902 0.00042194086    90.806252    331.12626          600          600          600 -0.0011608995    30738.987 7.6579289e-05 
  471000    14.302965 0.0021059448    87.885363     320.4752          600          600          600 0.00051347859    28414.769 7.6579289e-05 
  472000      21.1197 0.0040473103    75.806112    276.42804          600          600          600 0.0054231406    26474.512 7.6579289e-05 
  473000    15.886867 0.0099691455    83.095897    303.01034          600          600          600  0.011067468    28623.809 7.6579289e-05 
  474000    26.042509 0.00080101772     78.95224    287.90044          600          600          600 0.0017364492    30149.688 7.6579289e-05 
  475000    23.635212  0.033347401    82.532566    300.95615          600          600          600  0.015692632    29665.625 7.6579289e-05 
  476000    21.699998  0.019031962    88.695134    323.42804          600          600          600 0.0072878027    28677.041 7.6579289e-05 
  477000    19.577485 0.0032480906    83.890286    305.90709          600          600          600  0.018675883     27757.73 7.6579289e-05 
  478000    23.432307 -0.030418435    87.304624    318.35752          600          600          600 -0.022853628    27359.747 7.6579289e-05 
  479000    22.240786 -0.002954473    82.544392    300.99927          600          600          600   -0.0155745    28117.611 7.6579289e-05 
  480000    24.667373 0.0038935554    77.451161    282.42673          600          600          600  0.015078717    27259.814 7.6579289e-05 
  481000     15.95631 -0.0094648717    94.694908     345.3063          600          600          600 0.0076503926    28031.732 7.6579289e-05 
  482000    23.770897 0.0016170174    92.208736    336.24044          600          600          600 0.0032272324    29403.793 7.6579289e-05 
  483000    20.874374  0.016397148    77.490218    282.56916          600          600          600  0.024278049    28527.441 7.6579289e-05 
  484000     26.02977  0.042786157    82.662685    301.43063          600          600          600  0.041211485    28365.574 7.6579289e-05 
  485000    23.203334 0.0071103919    73.694491    268.72798          600          600          600  0.012466637    29454.382 7.6579289e-05 
  486000    25.256379 -0.014743691    85.601634    312.14755          600          600          600 -0.024784776    31303.579 7.6579289e-05 
  487000    20.908699 0.0084286402    81.254481    296.29559          600          600          600 -0.0072794792    29063.937 7.6579289e-05 
  488000    33.756135 0.0023175092     88.19623    321.60878          600          600          600  0.011855215    29878.429 7.6579289e-05 
  489000    19.152067 0.0031588036    85.329821    311.15638          600          600          600 0.0048595234    28863.332 7.6579289e-05 
  490000    22.309355  0.012756473    89.406889    326.02346          600          600          600 -0.015284481    29404.823 7.6579289e-05 
  491000    25.999638 -0.0097099201     72.69396    265.07953          600          600          600  0.015365932      30102.3 7.6579289e-05 
  492000    14.396512  0.021616704    90.177768    328.83448          600          600          600  0.023757026    28805.252 7.6579289e-05 
  493000    21.781002  0.012613897    83.786792     305.5297          600          600          600 0.0005061742    29636.698 7.6579289e-05 
  494000    28.853072 -0.015411928    80.511244    293.58537          600          600          600 -0.010441316    28972.791 7.6579289e-05 
  495000    19.960836 -0.0045521559    85.102963    310.32914          600          600          600 -0.005770756    29767.315 7.6579289e-05 
  496000     21.41899  0.035354306    83.926787    306.04019          600          600          600  0.026450889    28339.892 7.6579289e-05 
  497000     16.62839 -0.0064080883    78.423932    285.97396          600          600          600 -0.011285118     28835.75 7.6579289e-05 
  498000    30.356618 0.00039367128    85.133819    310.44165          600          600          600 -0.00055515212     28842.69 7.6579289e-05 
  499000    21.962091   0.02552483       80.751    294.45964          600          600          600  0.020461814    27673.119 7.6579289e-05 
  500000    18.064316 0.0070185042    95.912657    349.74683          600          600          600 0.0056616552    27308.267 7.6579289e-05 
  501000    19.520809 -0.012500866    94.736573    345.45823          600          600          600 0.0012017107    24847.184 7.6579289e-05 
  502000    16.832127 -0.011800303    82.401287    300.47744          600          600          600  -0.03644244    24261.922 7.6579289e-05 
  503000    16.900308 -0.014844397    72.391767    263.97758          600          600          600 0.0059281865    24759.764 7.6579289e-05 
  504000    28.802854 -0.0073654775    80.683109    294.21208          600          600          600 -0.022195252    25689.059 7.6579289e-05 
  505000    26.429096 0.0067466482     90.58121    330.30564          600          600          600 -0.019179946    26208.176 7.6579289e-05 
  506000    30.864647  0.004047434    92.740368    338.17904          600          600          600 -0.0076571009    26667.413 7.6579289e-05 
  507000    20.730101  0.001904258    78.042102    284.58161          600          600          600 -0.019988219    27207.296 7.6579289e-05 
  508000    21.310775 0.0013073821     78.81785    287.41038          600          600          600 -0.010748672    29415.959 7.6579289e-05 
  509000    16.830888 0.0014756255    78.464352    286.12135          600          600          600 0.0056385466    29359.952 7.6579289e-05 
  510000    15.802958  -0.01504507    93.619267    341.38396          600          600          600  0.005507429     27404.08 7.6579289e-05 
  511000    22.915906 0.0033926514    92.930067    338.87078          600          600          600 0.0039047973    26134.852 7.6579289e-05 
  512000    25.403044 0.0011675533    93.648494    341.49053          600          600          600 -0.0047345384    28348.703 7.6579289e-05 
  513000    31.229104 -0.006213753    85.654109     312.3389          600          600          600 -0.00035411114    28895.944 7.6579289e-05 
  514000    21.277876  -0.02839757    73.592611    268.35648          600          600          600 -0.040593927    28391.303 7.6579289e-05 
  515000    21.768461 -0.025691412    70.585629    257.39148          600          600          600 -0.044114604    28865.915 7.6579289e-05 
  516000    20.733808 0.0049843473    76.059615    277.35244          600          600          600 0.0029797272    29617.235 7.6579289e-05 
  517000    20.636015 -0.012526939    82.242994    299.90022          600          600          600 0.0072782198    28498.947 7.6579289e-05 
  518000    20.801083  0.015795586    84.018093    306.37314          600          600          600  0.025078558    27720.855 7.6579289e-05 
  519000    25.115892 -0.021412311    80.342798    292.97113          600          600          600 -0.020578384    27145.842 7.6579289e-05 
  520000    17.118484  0.010785439    83.977081    306.22359          600          600          600 0.0037077683    28040.353 7.6579289e-05 
  521000    19.101706 0.0081402316    88.557306    322.92544          600          600          600  0.014518213    27157.618 7.6579289e-05 
  522000    21.787893 -0.0049869902    80.535098    293.67235          600          600          600 0.0029556698    27230.259 7.6579289e-05 
  523000    12.621034 -0.0019003217    83.524759    304.57419          600          600          600 0.0069538222    25648.216 7.6579289e-05 
  524000    21.956799  0.020314641    84.263684    307.26869          600          600          600  0.027400298    27078.894 7.6579289e-05 
  525000    20.659135 0.0044043272    81.645084    297.71993          600          600          600 0.0075825372    27112.852 7.6579289e-05 
  526000    21.526038 -0.027526618    90.167541    328.79719          600          600          600 -0.016743488    28349.469 7.6579289e-05 
  527000    22.330447  -0.01085668    88.811603    323.85274          600          600          600 0.0035286634    28162.733 7.6579289e-05 
  528000    17.764448 -0.024739884    78.214417    285.20996          600          600          600 -0.030830936    28668.025 7.6579289e-05 
  529000    15.103601  0.019149878    79.686611    290.57833          600          600          600 -0.0018213814    26945.464 7.6579289e-05 
  530000    16.751555 -0.0028045548    76.206243    277.88712          600          600          600 0.0028728598    26354.573 7.6579289e-05 
  531000    24.634516  -0.01502342     72.94019    265.97742          600          600          600 0.00039541343    27446.221 7.6579289e-05 
  532000    25.955266 -0.0022876878    86.151449    314.15245          600          600          600 0.0076366538    29721.963 7.6579289e-05 
  533000    12.091543 0.0059072793    87.174922    317.88456          600          600          600 -0.016910674    27838.978 7.6579289e-05 
  534000    23.319856  0.026846238    87.642383    319.58916          600          600          600  0.015095722    28371.138 7.6579289e-05 
  535000    23.259087 -0.024819739    65.623842    239.29825          600          600          600 -0.018885539    27661.074 7.6579289e-05 
  536000    14.723619  0.011122767    96.714747    352.67167          600          600          600  0.021458793    28604.093 7.6579289e-05 
  537000    28.846813 -0.0025564141    90.903543    331.48103          600          600          600  0.003899353    29262.042 7.6579289e-05 
  538000    33.255836 -0.017150136    72.539117     264.5149          600          600          600 -0.020907715    30223.337 7.6579289e-05 
  539000    19.068599 -0.0052529307    82.621544    301.28061          600          600          600 0.0040956395    31666.596 7.6579289e-05 
  540000    27.408097 -0.00097224415    80.660214    294.12859          600          600          600 -0.0031252558    31143.895 7.6579289e-05 
  541000    22.102375 0.0026261701    74.603324    272.04206          600          600          600 -0.018808423    30301.286 7.6579289e-05 
  542000    23.042088 -0.011210125     84.19221    307.00806          600          600          600 -0.007915144    30153.156 7.6579289e-05 
  543000    18.847436 0.0013558864    90.139631    328.69542          600          600          600  0.004870903    28650.792 7.6579289e-05 
  544000    28.045482 -0.024656364    67.078574    244.60295          600          600          600 -0.040576988    28654.902 7.6579289e-05 
  545000    20.007567 0.0017458274     84.73843    308.99986          600          600          600 0.0088635874    28569.802 7.6579289e-05 
[...]
 4869000    25.460305  0.031929669    80.212175    292.49481          600          600          600  0.041190835    29183.451 7.6579289e-05 
 4870000    16.082331  0.012407816    78.360269    285.74181          600          600          600 -0.012852728    30539.121 7.6579289e-05 
 4871000    23.632328 0.0035813101    88.426286    322.44768          600          600          600  0.018656181    30239.679 7.6579289e-05 
 4872000    21.301463 -0.020233312    82.710878    301.60636          600          600          600 -0.028733614    30100.572 7.6579289e-05 
 4873000    22.276304  0.021813351    84.541325    308.28111          600          600          600  0.021121925    29177.564 7.6579289e-05 
 4874000    23.177849  0.011314419    85.402589    311.42173          600          600          600  0.020643764    27063.518 7.6579289e-05 
 4875000    17.665473 0.0088939833    84.693886    308.83743          600          600          600  0.022572581     28058.36 7.6579289e-05 
 4876000    32.080413 -0.011006808    82.091447     299.3476          600          600          600 0.0070931776    27403.363 7.6579289e-05 
 4877000    20.351576 0.0032799238    91.949587    335.29545          600          600          600  0.018722129    26433.301 7.6579289e-05 
 4878000    25.666421 0.00042109059    83.739153    305.35598          600          600          600  0.011169788    26306.143 7.6579289e-05 
 4879000    21.147374 -0.0093187367    87.250158    318.15891          600          600          600  -0.01694404    27883.766 7.6579289e-05 
 4880000     15.92386  0.014644305    72.499409     264.3701          600          600          600  0.017016126    27644.119 7.6579289e-05 
 4881000    30.778064 0.0019821375    80.735694    294.40383          600          600          600 -0.025969556    26819.858 7.6579289e-05 
 4882000    19.831386 -0.0056988508    78.178082    285.07746          600          600          600  0.016891958    27126.705 7.6579289e-05 
 4883000     20.57114 -0.015930619     94.03768    342.90971          600          600          600 -0.032139932    24310.719 7.6579289e-05 
 4884000    17.322958 0.0010430443    95.448565    348.05452          600          600          600 -0.022508915     25285.78 7.6579289e-05 
 4885000    24.683764 0.00097095579    93.496362    340.93578          600          600          600  0.012051494    26342.159 7.6579289e-05 
 4886000    27.034801 0.0078604457    84.338946    307.54314          600          600          600  0.013008978    29633.976 7.6579289e-05 
 4887000     25.41954 -0.013901182    89.474752    326.27093          600          600          600 -0.0071275812    32010.257 7.6579289e-05 
 4888000    19.287696 0.0088552554    83.873426    305.84561          600          600          600 -0.020309882    28401.108 7.6579289e-05 
 4889000    17.717205  0.019579291    75.994035     277.1133          600          600          600  0.011669899    28500.496 7.6579289e-05 
 4890000    23.391462 -0.0022850796    83.817736    305.64254          600          600          600  0.012954053    27036.478 7.6579289e-05 
 4891000    25.096924 0.0054969775      73.8623     269.3399          600          600          600 0.00028042629     27518.61 7.6579289e-05 
 4892000    23.566607  0.013008852     92.27341    336.47627          600          600          600  0.015740701    27567.263 7.6579289e-05 
 4893000    24.119826 -0.0086487374    68.823529    250.96595          600          600          600  0.011384825    25877.986 7.6579289e-05 
 4894000    19.728632 -0.0061166695    75.926248    276.86612          600          600          600 -0.0056715516    26670.804 7.6579289e-05 
 4895000    24.721598 -0.0017107278    66.177701     241.3179          600          600          600 0.0043351125    29628.742 7.6579289e-05 
 4896000    23.240666 -0.010127321     76.24366    278.02357          600          600          600 -0.019197988    29885.667 7.6579289e-05 
 4897000    24.565192  0.022499525    91.503693    333.66949          600          600          600 -0.0041914612    30335.255 7.6579289e-05 
 4898000    22.334667 0.0089657822    88.495427     322.6998          600          600          600 -0.0054919284    30927.112 7.6579289e-05 
 4899000    17.965255  0.029866959    97.334938     354.9332          600          600          600  0.023968396    27196.888 7.6579289e-05 
 4900000    21.053347 -0.015869508    87.948753    320.70635          600          600          600 -0.026232408    25351.039 7.6579289e-05 
 4901000    21.364171 -0.0062105835    72.172556    263.17823          600          600          600 0.0092544145     26405.51 7.6579289e-05 
 4902000    20.012276 -0.019229264    84.848459    309.40108          600          600          600 0.0033658977     27152.52 7.6579289e-05 
 4903000    18.704114  0.008908391    77.979293    284.35257          600          600          600  0.029682606    26563.208 7.6579289e-05 
 4904000    16.000336  0.015906107    87.687179    319.75252          600          600          600 0.0074084529    24949.462 7.6579289e-05 
 4905000    15.001822 0.00049371586    84.632687    308.61427          600          600          600 0.0096753634    25539.518 7.6579289e-05 
 4906000    28.269099 0.0046890626    84.065588    306.54633          600          600          600  0.029114999    27159.201 7.6579289e-05 
 4907000    20.376067 -0.00073123901    82.174277    299.64964          600          600          600  0.014473029    27487.591 7.6579289e-05 
 4908000    24.589818 -0.0067391104    78.864982    287.58225          600          600          600 -0.025680702    26578.021 7.6579289e-05 
 4909000    20.748846  0.009823677     82.03645    299.14705          600          600          600  0.012918459    26983.948 7.6579289e-05 
 4910000    29.998407 0.0037119738    72.158825    263.12816          600          600          600 0.0060498776    27380.108 7.6579289e-05 
 4911000    26.225526 -0.029324426    74.306799    270.96077          600          600          600 -0.024231889    28724.962 7.6579289e-05 
 4912000    26.572761 0.0028227412      94.9585    346.26749          600          600          600 -0.0058092484     30324.07 7.6579289e-05 
 4913000    15.121372 0.0060179063     83.83593    305.70888          600          600          600 -0.0022902708    32268.593 7.6579289e-05 
 4914000     22.40242 -0.018296428    89.998361    328.18027          600          600          600 -0.015290346    30559.369 7.6579289e-05 
 4915000    20.576418 -0.0064182026    69.945359    255.05672          600          600          600  -0.03831704    30484.076 7.6579289e-05 
 4916000    20.109836 -0.0014235925    90.943617    331.62716          600          600          600 -0.0041987592    31825.904 7.6579289e-05 
 4917000    29.409246 -0.0036175208    85.451858    311.60138          600          600          600 0.0050560416    30968.443 7.6579289e-05 
 4918000    15.833932  -0.02249311    86.846709    316.68773          600          600          600 -0.012309686    29390.194 7.6579289e-05 
 4919000    18.345277 -0.0015759678    88.365377    322.22557          600          600          600 0.0053020762     25641.63 7.6579289e-05 
 4920000    22.393599 -0.012191145    85.531402    311.89145          600          600          600  0.004309212    26643.189 7.6579289e-05 
 4921000    13.129156 0.0046811881    84.699826    308.85909          600          600          600 -0.014544558    25382.028 7.6579289e-05 
 4922000    10.468106 0.0085932554    88.200209    321.62328          600          600          600 -0.0038487225    24134.184 7.6579289e-05 
 4923000    17.110324 -0.0059081803    79.964134    291.59033          600          600          600 0.0067482756     26547.74 7.6579289e-05 
 4924000    20.179348 -0.017836632    86.117179    314.02749          600          600          600 -0.0088555771    24802.223 7.6579289e-05 
 4925000    18.180723 -0.0057816048    76.376422    278.50768          600          600          600 -0.014085678    24344.443 7.6579289e-05 
 4926000    18.269177 -0.0066500307    79.822309    291.07316          600          600          600 -0.010615563    23591.073 7.6579289e-05 
 4927000    8.5189982 -0.010243432    84.437829    307.90371          600          600          600 -0.00014810181    23089.903 7.6579289e-05 
 4928000    26.060657 -0.0028288557    68.780438    250.80882          600          600          600 -0.0074389084    23868.024 7.6579289e-05 
 4929000    18.645405 0.0024949571    93.595845    341.29855          600          600          600 -0.0035385082    25020.604 7.6579289e-05 
 4930000    25.721761 -0.021847861    87.403788    318.71913          600          600          600 -0.026461313    25457.671 7.6579289e-05 
 4931000    29.258825  0.011424339    81.429023    296.93206          600          600          600  0.015357193    23627.752 7.6579289e-05 
 4932000    22.352098   0.01351878    81.911178    298.69025          600          600          600 0.0041957925    24736.692 7.6579289e-05 
 4933000     11.58437 -0.0059804102    71.600373    261.09175          600          600          600 -0.0074071479    24446.177 7.6579289e-05 
 4934000    30.260312 -0.017749678    89.800129    327.45742          600          600          600 -0.012401049        24782 7.6579289e-05 
 4935000    21.451681 -0.019141977    80.105739    292.10669          600          600          600 -0.033637917    25313.248 7.6579289e-05 
 4936000    13.935348 -0.0021959546    93.265172    340.09275          600          600          600 -0.010346154    25368.518 7.6579289e-05 
 4937000     22.62511 -0.0018971623    85.873353    313.13837          600          600          600  -0.02041536    25397.397 7.6579289e-05 
 4938000    28.712305 -0.032092791    83.926565    306.03938          600          600          600 -0.023702549    26342.821 7.6579289e-05 
 4939000    20.912346 0.00026896233    86.632378    315.90617          600          600          600   0.01431781    26156.855 7.6579289e-05 
 4940000    26.378182 -0.011085042      76.7234    279.77294          600          600          600 -0.033934313    26539.173 7.6579289e-05 
 4941000    12.907544 0.0021476434    78.854491      287.544          600          600          600 -0.009078432    27979.187 7.6579289e-05 
 4942000    17.890965 0.0067150845    83.498921    304.47997          600          600          600 0.0063366688    27606.637 7.6579289e-05 
 4943000    24.351243 0.0016643418    99.390916    362.43035          600          600          600  0.010136972    26764.579 7.6579289e-05 
 4944000    17.444353  -0.00272179    80.738863    294.41538          600          600          600 -0.0027392479    25325.323 7.6579289e-05 
 4945000    24.429984 0.0042680436    85.682517    312.44249          600          600          600 -0.0056037499    25432.355 7.6579289e-05 
 4946000    15.851473 -0.0092064778    94.865856    345.92966          600          600          600  -0.02647158    24511.036 7.6579289e-05 
 4947000    22.056553 0.0098055229    74.956237    273.32896          600          600          600 -0.0042295906    24014.245 7.6579289e-05 
 4948000    24.257769 -0.019918144    77.378781     282.1628          600          600          600 -0.011523966    26360.205 7.6579289e-05 
 4949000    15.670773 -0.0028460819    82.436123    300.60447          600          600          600 -0.019958557    26929.375 7.6579289e-05 
 4950000    13.622865 -0.0058827475    91.002965    331.84358          600          600          600 0.0082875435    26493.576 7.6579289e-05 
 4951000    19.518269 -0.0052384228      86.2194    314.40024          600          600          600 -0.026360942    26221.283 7.6579289e-05 
 4952000    16.866136 -0.022949842    77.395977     282.2255          600          600          600 -0.013728397    26089.334 7.6579289e-05 
 4953000    19.362117  -0.02643727    81.251003    296.28291          600          600          600 -0.017430891    26782.353 7.6579289e-05 
 4954000    24.261536 -0.012305949    91.245975    332.72972          600          600          600 -0.0061071581    27280.558 7.6579289e-05 
 4955000    19.279623 0.0098399069    79.040947    288.22391          600          600          600  0.011239684    26754.507 7.6579289e-05 
 4956000    22.733464 0.0015684181    82.261149    299.96642          600          600          600  0.016006121    27487.591 7.6579289e-05 
 4957000    26.427757 -0.0065432042    84.832263    309.34202          600          600          600 -0.0088788618    26533.633 7.6579289e-05 
 4958000    22.260521 -0.0031064646    91.478819    333.57878          600          600          600 -0.038291151    25036.884 7.6579289e-05 
 4959000    19.080059 -0.0037494574    85.841855    313.02351          600          600          600 -0.0085181671    27183.491 7.6579289e-05 
 4960000    24.628015 0.0048247585    77.014196    280.83333          600          600          600 0.0067884206    27552.052 7.6579289e-05 
 4961000     19.34667  0.053885449    89.688889    327.05178          600          600          600  0.053053601    25031.356 7.6579289e-05 
 4962000    15.624076 0.0056342504    83.931924    306.05893          600          600          600 -0.0073995608    23979.098 7.6579289e-05 
 4963000    18.643685 -0.0019397922    85.343866    311.20759          600          600          600 -0.0072525593    25370.974 7.6579289e-05 
 4964000    23.886492 -0.010349588    90.207084    328.94138          600          600          600 -0.027748515    26837.706 7.6579289e-05 
 4965000    24.584203  0.020308278    78.226575    285.25429          600          600          600  0.010923111    27032.122 7.6579289e-05 
 4966000    23.232155 -0.030678155    77.509793    282.64053          600          600          600 -0.037597244    26300.699 7.6579289e-05 
 4967000     13.97912 -0.015922949    70.289893    256.31307          600          600          600 -0.025972493     24975.61 7.6579289e-05 
 4968000    15.874084 -0.0044176472    83.794215    305.55677          600          600          600 -0.023482317     24842.18 7.6579289e-05 
 4969000    18.061926 -7.6721603e-06    90.912924    331.51524          600          600          600   0.02516605    26635.406 7.6579289e-05 
 4970000    25.097363 -0.014142003    80.677646    294.19216          600          600          600 -0.017157127    27016.103 7.6579289e-05 
 4971000    17.446777 0.00048496427    96.028653    350.16982          600          600          600  0.020302705    27165.005 7.6579289e-05 
 4972000    17.626015 -0.015865688     70.55389    257.27574          600          600          600  -0.01813372    24817.045 7.6579289e-05 
 4973000    15.096079 0.0071702977    82.545364    301.00282          600          600          600  0.026789265     25067.11 7.6579289e-05 
 4974000    25.557447 0.0011857403    83.102307    303.03372          600          600          600  0.014126208    25290.811 7.6579289e-05 
 4975000    14.262695  0.026198468    89.505617    326.38348          600          600          600  0.005884323    24471.423 7.6579289e-05 
 4976000     22.07367 0.0013517797    90.901196    331.47247          600          600          600 -0.0033158998    25152.192 7.6579289e-05 
 4977000    15.720946 -0.0021088745    79.572849     290.1635          600          600          600 0.0064831235    24654.103 7.6579289e-05 
 4978000    23.091487 -0.017384931    71.127104    259.36597          600          600          600 -0.014651155    25275.571 7.6579289e-05 
 4979000    22.341031 0.0052893096    86.310742    314.73332          600          600          600 -0.025054338    25018.813 7.6579289e-05 
 4980000    18.372887 -0.00031439205    88.431479    322.46662          600          600          600 0.0092810553    25266.587 7.6579289e-05 
 4981000    25.814173 -0.012025943    83.653999    305.04547          600          600          600 -0.025823358    26252.137 7.6579289e-05 
 4982000    20.662417  0.005061091    87.051173    317.43331          600          600          600 0.0078250718     27431.86 7.6579289e-05 
 4983000    16.536558 0.0091935066    74.831508    272.87413          600          600          600 0.0054648614    27159.904 7.6579289e-05 
 4984000    20.523255  0.022911771    83.422177    304.20013          600          600          600  0.034058922    29690.404 7.6579289e-05 
 4985000    18.339479 0.0091531723    81.357355    296.67072          600          600          600 -0.0060095917    29886.306 7.6579289e-05 
 4986000    21.663482 -0.013533695    82.146823    299.54953          600          600          600 -0.010345434    29748.736 7.6579289e-05 
 4987000    15.727538 3.5310103e-05    81.870152    298.54064          600          600          600 0.0049345007    29940.922 7.6579289e-05 
 4988000    26.306431 -0.0045725817    75.365312    274.82066          600          600          600 -0.00088121019    30047.095 7.6579289e-05 
 4989000    24.564429  0.025825626    91.613122    334.06852          600          600          600  0.058980903    28852.611 7.6579289e-05 
 4990000    21.353879 -0.0093811399    79.554375    290.09613          600          600          600 -0.017687008    27954.013 7.6579289e-05 
 4991000    28.115388 -0.0085931821    88.344044    322.14778          600          600          600  0.014561558    26837.019 7.6579289e-05 
 4992000    20.298744 -0.0016224844    94.489139    344.55596          600          600          600 -0.002480642    27780.895 7.6579289e-05 
 4993000    22.226009   -0.0023934    69.758483    254.37527          600          600          600 -0.011711092    27546.624 7.6579289e-05 
 4994000    24.122524 -0.0010924855    75.839661    276.55038          600          600          600 -0.00087093425    27242.109 7.6579289e-05 
 4995000    22.244919 0.0050960846    68.545087    249.95061          600          600          600 -0.009584775    27009.492 7.6579289e-05 
 4996000    13.442759 -0.0028239171    81.699607    297.91875          600          600          600 -0.0072486184    28796.748 7.6579289e-05 
 4997000    17.201198  0.012711583    87.371968    318.60309          600          600          600  0.022161791     28487.72 7.6579289e-05 
 4998000    11.984036  0.015861381    74.778728    272.68167          600          600          600  0.030819717    27763.058 7.6579289e-05 
 4999000    25.058685 -0.038414253    85.329741    311.15609          600          600          600 -0.030098414    28850.824 7.6579289e-05 
 5000000    22.129495 -0.0019355307    82.760048    301.78566          600          600          600  0.013521727    27208.002 7.6579289e-05 
Loop time of 190.061 on 1 procs for 5000000 steps with 93 atoms

Performance: 22729.537 ns/day, 0.001 hours/ns, 26307.334 timesteps/s
99.8% CPU use with 1 MPI tasks x no OpenMP threads

MPI task timing breakdown:
Section |  min time  |  avg time  |  max time  |%varavg| %total
---------------------------------------------------------------
Pair    | 101.61     | 101.61     | 101.61     |   0.0 | 53.46
Bond    | 4.6857     | 4.6857     | 4.6857     |   0.0 |  2.47
Neigh   | 45.296     | 45.296     | 45.296     |   0.0 | 23.83
Comm    | 2.639      | 2.639      | 2.639      |   0.0 |  1.39
Output  | 0.47025    | 0.47025    | 0.47025    |   0.0 |  0.25
Modify  | 21.854     | 21.854     | 21.854     |   0.0 | 11.50
Other   |            | 13.5       |            |       |  7.10

Nlocal:        93.0000 ave          93 max          93 min
Histogram: 1 0 0 0 0 0 0 0 0 0
Nghost:        40.0000 ave          40 max          40 min
Histogram: 1 0 0 0 0 0 0 0 0 0
Neighs:        1082.00 ave        1082 max        1082 min
Histogram: 1 0 0 0 0 0 0 0 0 0

Total # of neighbors = 1082
Ave neighs/atom = 11.634409
Ave special neighs/atom = 1.9784946
Neighbor list builds = 123269
Dangerous builds = 47
Total wall time: 0:03:10
