ITEM: TIMESTEP
0
ITEM: NUMBER OF ATOMS
93
ITEM: BOX BOUNDS pp pp pp
-3.0000000000000000e+02 3.0000000000000000e+02
-3.0000000000000000e+02 3.0000000000000000e+02
-3.0000000000000000e+02 3.0000000000000000e+02
ITEM: ATOMS id mol type q xu yu zu
1 1 1 0 6 0 0
2 1 8 -0.75 12 0 0
3 1 8 -0.75 18 0 0
4 1 18 0 24 0 0
5 1 12 0 30 0 0
6 1 15 0 36 0 0
7 1 7 -0.75 42 0 0
8 1 18 0 48 0 0
9 1 15 0 54 0 0
10 1 10 0 60 0 0
11 1 8 -0.75 66 0 0
12 1 18 0 72 0 0
13 1 18 0 78 0 0
14 1 11 0 84 0 0
15 1 15 0 90 0 0
16 1 12 0 96 0 0
17 1 8 -0.75 102 0 0
18 1 4 0 108 0 0
19 1 14 0 114 0 0
20 1 15 0 120 0 0
21 1 7 -0.75 126 0 0
22 1 11 0 132 0 0
23 1 13 0 138 0 0
24 1 3 0.75 144 0 0
25 1 11 0 150 0 0
26 1 11 0 156 0 0
27 1 18 0 162 0 0
28 1 8 -0.75 168 0 0
29 1 17 0 174 0 0
30 1 17 0 180 0 0
31 1 10 0 186 0 0
32 1 11 0 192 0 0
33 1 15 0 198 0 0
34 1 18 0 204 0 0
35 1 11 0 210 0 0
36 1 18 0 216 0 0
37 1 15 0 222 0 0
38 1 12 0 228 0 0
39 1 6 0 234 0 0
40 1 1 0 240 0 0
41 1 7 -0.75 246 0 0
42 1 7 -0.75 252 0 0
43 1 11 0 258 0 0
44 1 1 0 264 0 0
45 1 11 0 270 0 0
46 1 15 0 276 0 0
47 1 18 0 282 0 0
48 1 7 -0.75 288 0 0
49 1 7 -0.75 294 0 0
50 1 20 0 300 0 0
51 1 8 -0.75 300 6 0
52 1 12 0 300 12 0
53 1 13 0 300 18 0
54 1 14 0 300 24 0
55 1 4 0 300 30 0
56 1 8 -0.75 300 36 0
57 1 7 -0.75 300 42 0
58 1 18 0 300 48 0
59 1 2 0 300 54 0
60 1 18 0 300 60 0
61 1 7 -0.75 300 66 0
62 1 8 -0.75 300 72 0
63 1 6 0 300 78 0
64 1 18 0 300 84 0
65 1 5 0.75 300 90 0
66 1 1 0 300 96 0
67 1 18 0 300 102 0
68 1 8 -0.75 300 108 0
69 1 6 0 300 114 0
70 1 6 0 300 120 0
71 1 18 0 300 126 0
72 1 18 0 300 132 0
73 1 10 0 300 138 0
74 1 6 0 300 144 0
75 1 18 0 300 150 0
76 1 6 0 300 156 0
77 1 18 0 300 162 0
78 1 6 0 300 168 0
79 1 6 0 300 174 0
80 1 18 0 300 180 0
81 1 4 0 300 186 0
82 1 18 0 300 192 0
83 1 6 0 300 198 0
84 1 6 0 300 204 0
85 1 18 0 300 210 0
86 1 6 0 300 216 0
87 1 18 0 300 222 0
88 1 6 0 300 228 0
89 1 18 0 300 234 0
90 1 15 0 300 240 0
91 1 13 0 300 246 0
92 1 18 0 300 252 0
93 1 11 0 300 258 0
ITEM: TIMESTEP
100000
ITEM: NUMBER OF ATOMS
93
ITEM: BOX BOUNDS pp pp pp
-3.0000000000000000e+02 3.0000000000000000e+02
-3.0000000000000000e+02 3.0000000000000000e+02
-3.0000000000000000e+02 3.0000000000000000e+02
ITEM: ATOMS id mol type q xu yu zu
1 1 1 0 180.667 51.1494 6.73423
2 1 8 -0.75 180.026 53.64 9.90677
3 1 8 -0.75 181.885 51.4923 12.3913
4 1 18 0 185.499 50.5955 13.5583
5 1 12 0 184.312 48.1217 16.5364
6 1 15 0 187.773 46.8747 16.1794
7 1 7 -0.75 188.958 45.3205 13.2717
8 1 18 0 191.799 44.275 11.0838
9 1 15 0 195.366 44.7415 9.28218
10 1 10 0 195.331 46.1541 5.79563
11 1 8 -0.75 196.745 49.6105 4.91167
12 1 18 0 198.155 49.1757 1.20562
13 1 18 0 198.479 46.5134 -1.40458
14 1 11 0 197.102 46.7572 -5.08924
15 1 15 0 193.777 48.2573 -3.87913
16 1 12 0 190.696 47.239 -6.02319
17 1 8 -0.75 189.98 49.0968 -9.37109
18 1 4 0 186.279 50.2674 -10.3579
19 1 14 0 184.557 53.6813 -8.76192
20 1 15 0 186.197 52.9722 -5.4796
21 1 7 -0.75 183.476 52.399 -2.66501
22 1 11 0 179.889 52.4824 -3.4048
23 1 13 0 177.952 55.6799 -3.01356
24 1 3 0.75 175.258 56.9652 -1.03358
25 1 11 0 173.335 59.3639 1.5525
26 1 11 0 172.874 63.0207 0.869783
27 1 18 0 174.553 66.0592 2.64829
28 1 8 -0.75 177.994 67.6917 2.99297
29 1 17 0 178.847 70.2875 5.55489
30 1 17 0 179.815 69.8108 9.30986
31 1 10 0 180.912 67.881 12.2431
32 1 11 0 183.972 65.615 12.6879
33 1 15 0 185.57 65.3019 15.8371
34 1 18 0 188.786 64.7449 17.5535
35 1 11 0 190.537 64.6581 20.7966
36 1 18 0 191.626 66.7361 23.6693
37 1 15 0 193.309 69.7531 24.7902
38 1 12 0 191.536 72.9451 23.8025
39 1 6 0 191.516 76.6 25.2425
40 1 1 0 194.98 78.5412 25.2857
41 1 7 -0.75 194.271 82.3218 24.9071
42 1 7 -0.75 191.951 85.44 25.2579
43 1 11 0 193.227 88.5808 24.2743
44 1 1 0 196.669 89.1061 23.5787
45 1 11 0 200.458 87.9778 24.1726
46 1 15 0 203.452 89.607 25.2276
47 1 18 0 206.133 91.527 23.1629
48 1 7 -0.75 207.804 87.8874 23.1352
49 1 7 -0.75 207.564 83.9841 22.6919
50 1 20 0 210.806 82.3614 21.2256
51 1 8 -0.75 209.257 78.959 21.954
52 1 12 0 205.818 77.4972 20.8985
53 1 13 0 203.368 79.2645 18.4126
54 1 14 0 199.945 80.6715 16.8994
55 1 4 0 196.537 81.0123 15.0624
56 1 8 -0.75 197.356 80.421 11.6214
57 1 7 -0.75 195.021 83.3043 9.91081
58 1 18 0 198.394 84.9642 8.62274
59 1 2 0 198.163 82.9959 5.42131
60 1 18 0 200.535 79.9686 5.28324
61 1 7 -0.75 203.4 82.9882 4.54589
62 1 8 -0.75 203.339 85.7531 2.32884
63 1 6 0 205.842 87.9816 1.21669
64 1 18 0 206.299 91.9696 1.866
65 1 5 0.75 209.533 93.3412 0.562617
66 1 1 0 212.587 91.8296 -1.46969
67 1 18 0 215.59 90.7681 -3.30617
68 1 8 -0.75 217.695 94.3735 -3.74722
69 1 6 0 216.988 97.2472 -5.97017
70 1 6 0 217.641 94.7838 -9.14512
71 1 18 0 216.286 93.4375 -12.3154
72 1 18 0 214.232 95.4549 -15.015
73 1 10 0 211.055 96.0349 -17.0955
74 1 6 0 210.953 99.6166 -17.4424
75 1 18 0 212.795 102.608 -16.203
76 1 6 0 216.504 101.13 -16.9482
77 1 18 0 219.832 101.974 -15.9891
78 1 6 0 222.799 103.921 -15.2983
79 1 6 0 221.315 107.06 -13.8947
80 1 18 0 222.367 109.434 -16.8399
81 1 4 0 225.619 109.91 -18.8478
82 1 18 0 226.599 113.318 -19.9819
83 1 6 0 226.489 117.011 -20.89
84 1 6 0 229.478 118.676 -18.7945
85 1 18 0 232.544 118.065 -19.8276
86 1 6 0 232.91 119.129 -23.2105
87 1 18 0 232.543 118.494 -27.2343
88 1 6 0 235.364 120.754 -27.1105
89 1 18 0 238.739 120.105 -28.5398
90 1 15 0 238.972 118.021 -30.9489
91 1 13 0 238.661 114.468 -32.3125
92 1 18 0 236.929 113.104 -35.2976
93 1 11 0 234.892 113.271 -38.5397
ITEM: TIMESTEP
200000
ITEM: NUMBER OF ATOMS
93
ITEM: BOX BOUNDS pp pp pp
-3.0000000000000000e+02 3.0000000000000000e+02
-3.0000000000000000e+02 3.0000000000000000e+02
-3.0000000000000000e+02 3.0000000000000000e+02
ITEM: ATOMS id mol type q xu yu zu
1 1 1 0 187.768 33.517 38.4557
2 1 8 -0.75 189.901 35.9478 36.2498
3 1 8 -0.75 190.021 36.3119 32.5788
4 1 18 0 190.563 34.1981 29.3196
5 1 12 0 191.639 34.4315 25.7547
6 1 15 0 191.21 30.8099 24.0349
7 1 7 -0.75 189.427 27.7337 24.5023
8 1 18 0 189.873 25.6138 21.2365
9 1 15 0 193.277 25.4128 19.5985
10 1 10 0 196.436 27.4487 20.2941
11 1 8 -0.75 199.521 29.735 20.2727
12 1 18 0 201.506 29.5033 17.2797
13 1 18 0 203.351 26.2523 16.0155
14 1 11 0 202.857 22.5634 15.0858
15 1 15 0 203.597 21.3404 11.3029
16 1 12 0 203.747 21.5302 7.37317
17 1 8 -0.75 205.28 24.4524 5.3365
18 1 4 0 206.708 26.9875 7.84142
19 1 14 0 208.633 30.3257 8.78225
20 1 15 0 209.197 33.8515 8.20427
21 1 7 -0.75 210.969 36.6795 8.96978
22 1 11 0 212.724 36.9853 5.3112
23 1 13 0 211.324 34.8481 2.19818
24 1 3 0.75 207.755 35.8043 3.07424
25 1 11 0 204.687 34.1602 3.50943
26 1 11 0 202.679 31.4312 2.00032
27 1 18 0 202.593 32.9989 -1.79386
28 1 8 -0.75 205.014 35.8476 -1.99941
29 1 17 0 203.925 39.1818 -1.43775
30 1 17 0 200.732 38.765 0.891004
31 1 10 0 197.491 40.7116 0.980311
32 1 11 0 194.561 39.76 3.41387
33 1 15 0 193.197 43.8579 2.86298
34 1 18 0 196.066 45.9651 1.46002
35 1 11 0 193.983 48.2885 -1.29535
36 1 18 0 193.918 48.3826 -5.22719
37 1 15 0 191.727 49.5826 -8.17512
38 1 12 0 190.617 47.1388 -10.4397
39 1 6 0 186.937 48.2632 -11.0157
40 1 1 0 186.65 52.0089 -9.65442
41 1 7 -0.75 184.339 54.4137 -7.9752
42 1 7 -0.75 181.022 56.2461 -7.9417
43 1 11 0 180.811 57.4905 -11.439
44 1 1 0 181.214 60.6491 -13.4127
45 1 11 0 184.371 61.6096 -11.3378
46 1 15 0 183.766 63.8908 -8.19913
47 1 18 0 180.041 62.7042 -7.36098
48 1 7 -0.75 178.276 66.1582 -8.05092
49 1 7 -0.75 179.628 67.7297 -11.5451
50 1 20 0 182.552 67.2387 -13.6155
51 1 8 -0.75 184.483 65.942 -16.6046
52 1 12 0 188.045 64.6127 -16.9807
53 1 13 0 191.199 63.8823 -15.0478
54 1 14 0 194.529 64.145 -13.1076
55 1 4 0 195.91 67.0331 -11.3295
56 1 8 -0.75 199.379 68.4358 -11.2034
57 1 7 -0.75 199.443 69.6053 -7.74093
58 1 18 0 202.768 69.8519 -6.33325
59 1 2 0 204.59 66.7411 -4.61282
60 1 18 0 207.115 64.1877 -3.93939
61 1 7 -0.75 204.733 61.8354 -6.04811
62 1 8 -0.75 202.227 62.6652 -8.75191
63 1 6 0 198.458 61.5358 -7.37289
64 1 18 0 197.423 59.2342 -4.65719
65 1 5 0.75 200.097 58.8441 -2.06389
66 1 1 0 200.676 60.8374 1.47016
67 1 18 0 203.513 63.0811 2.16088
68 1 8 -0.75 205.267 61.622 5.31827
69 1 6 0 204.988 58.0085 5.13841
70 1 6 0 204.789 54.4993 6.57247
71 1 18 0 203.966 56.6404 10.0428
72 1 18 0 205.933 60.1296 10.8094
73 1 10 0 205.392 63.0751 12.7451
74 1 6 0 208.52 61.7547 14.7649
75 1 18 0 210.746 63.9462 12.8778
76 1 6 0 214.365 65.4467 11.9444
77 1 18 0 214 66.9683 8.36142
78 1 6 0 210.742 68.8887 7.86195
79 1 6 0 210.806 70.0274 11.6993
80 1 18 0 211.214 72.0689 14.8387
81 1 4 0 209.56 75.2334 16.3266
82 1 18 0 211.177 78.3515 17.938
83 1 6 0 211.859 75.9109 21.1409
84 1 6 0 215.438 75.7946 20.7383
85 1 18 0 216.653 77.3731 17.0073
86 1 6 0 219.116 74.6247 17.4611
87 1 18 0 223.015 74.3551 18.0302
88 1 6 0 225.464 72.1583 19.3491
89 1 18 0 226.219 69.8614 22.2964
90 1 15 0 227.529 71.3673 25.2729
91 1 13 0 225.41 74.5502 26.3945
92 1 18 0 222.577 73.3947 28.6884
93 1 11 0 219.911 71.7539 31.4493
ITEM: TIMESTEP
300000
ITEM: NUMBER OF ATOMS
93
ITEM: BOX BOUNDS pp pp pp
-3.0000000000000000e+02 3.0000000000000000e+02
-3.0000000000000000e+02 3.0000000000000000e+02
-3.0000000000000000e+02 3.0000000000000000e+02
ITEM: ATOMS id mol type q xu yu zu
1 1 1 0 275.449 74.8568 15.5366
2 1 8 -0.75 272.644 72.7093 13.7488
3 1 8 -0.75 271.098 69.6364 12.689
4 1 18 0 269.914 67.5174 15.4957
5 1 12 0 272.155 68.174 18.6814
6 1 15 0 274.331 65.3498 18.1948
7 1 7 -0.75 272.957 62.9637 21.1835
8 1 18 0 274.118 64.0966 24.4605
9 1 15 0 273.038 64.6013 28.212
10 1 10 0 269.935 62.5591 27.4722
11 1 8 -0.75 271.063 58.8161 28.0967
12 1 18 0 274.19 57.9551 30.8567
13 1 18 0 274.573 54.165 29.9316
14 1 11 0 277.709 53.195 27.8864
15 1 15 0 277.869 49.6501 27.3223
16 1 12 0 275.568 46.3363 26.2099
17 1 8 -0.75 272.27 45.9852 24.851
18 1 4 0 269.728 48.5331 23.2301
19 1 14 0 265.917 47.8066 23.5902
20 1 15 0 262.804 49.6446 22.7104
21 1 7 -0.75 259.513 47.7793 23.1333
22 1 11 0 255.833 46.2907 22.5132
23 1 13 0 254.811 43.1878 24.2775
24 1 3 0.75 255.28 40.612 21.4985
25 1 11 0 257.65 41.8759 18.4666
26 1 11 0 257.363 40.0177 15.3064
27 1 18 0 254.46 38.9804 13.2648
28 1 8 -0.75 250.964 38.9144 15.2356
29 1 17 0 248.749 36.7308 17.9137
30 1 17 0 248.698 33.6777 15.5452
31 1 10 0 245.27 33.9859 14.0366
32 1 11 0 241.681 32.4486 14.06
33 1 15 0 240.922 33.199 17.8612
34 1 18 0 238.151 35.7044 18.7686
35 1 11 0 236.916 38.7308 19.8544
36 1 18 0 237.822 41.7441 18.2647
37 1 15 0 237.207 44.3209 15.3624
38 1 12 0 237.315 48.1456 15.7439
39 1 6 0 240.253 50.4082 14.8155
40 1 1 0 238.764 53.8194 13.3464
41 1 7 -0.75 239.825 54.5752 9.58356
42 1 7 -0.75 241.846 53.8643 6.47264
43 1 11 0 244.915 52.0933 4.88828
44 1 1 0 243.063 50.4568 1.85937
45 1 11 0 239.482 50.7549 0.550374
46 1 15 0 237.623 53.8176 -0.641802
47 1 18 0 233.819 52.9059 -0.694692
48 1 7 -0.75 233.76 56.4114 -2.35846
49 1 7 -0.75 231.415 59.2195 -3.89177
50 1 20 0 228.555 59.8835 -0.920463
51 1 8 -0.75 229.693 58.2406 2.44124
52 1 12 0 228.303 60.6193 5.57609
53 1 13 0 230.037 63.8458 4.88471
54 1 14 0 230.684 67.5009 4.30365
55 1 4 0 232.439 70.0056 2.22263
56 1 8 -0.75 232.751 73.1845 0.11342
57 1 7 -0.75 229.452 75.3525 1.95611
58 1 18 0 226.698 72.9416 1.09003
59 1 2 0 225.652 70.8715 4.02328
60 1 18 0 222.369 71.2991 5.40441
61 1 7 -0.75 220.705 68.4253 6.94786
62 1 8 -0.75 219.533 65.3044 9.05221
63 1 6 0 219.17 62.7347 6.23752
64 1 18 0 221.941 60.8802 4.17744
65 1 5 0.75 222.69 63.3182 1.12117
66 1 1 0 219.054 62.6687 -0.71768
67 1 18 0 217.289 63.7379 -4.00932
68 1 8 -0.75 214.61 63.2538 -6.10651
69 1 6 0 214.076 59.619 -6.71933
70 1 6 0 211.471 59.8263 -3.76043
71 1 18 0 208.68 58.4575 -5.87314
72 1 18 0 205.438 58.6065 -3.48104
73 1 10 0 204.621 59.7566 0.0876661
74 1 6 0 207.368 62.6036 0.41214
75 1 18 0 205.633 64.6043 3.03518
76 1 6 0 203.704 67.479 3.84739
77 1 18 0 201.606 70.02 1.89092
78 1 6 0 198.925 67.6558 0.915745
79 1 6 0 201.667 65.6765 -0.714702
80 1 18 0 199.346 64.0031 -2.64247
81 1 4 0 198.102 62.0396 -5.71618
82 1 18 0 199.835 58.9173 -7.19943
83 1 6 0 197.113 59.1809 -9.89716
84 1 6 0 195.213 56.1885 -8.97734
85 1 18 0 193.355 53.6346 -6.47785
86 1 6 0 195.57 50.949 -7.99744
87 1 18 0 193.735 47.8677 -8.897
88 1 6 0 195.543 44.6562 -7.72732
89 1 18 0 195.943 43.6286 -3.95505
90 1 15 0 197.151 40.0583 -5.19576
91 1 13 0 198.77 36.7821 -4.19077
92 1 18 0 200.437 37.1335 -0.466449
93 1 11 0 203.228 34.3404 1.37526
ITEM: TIMESTEP
400000
ITEM: NUMBER OF ATOMS
93
ITEM: BOX BOUNDS pp pp pp
-3.0000000000000000e+02 3.0000000000000000e+02
-3.0000000000000000e+02 3.0000000000000000e+02
-3.0000000000000000e+02 3.0000000000000000e+02
ITEM: ATOMS id mol type q xu yu zu
1 1 1 0 264.365 75.6563 22.069
2 1 8 -0.75 261.272 73.0645 22.0621
3 1 8 -0.75 260.58 69.4109 20.1165
4 1 18 0 257.54 68.2161 18.872
5 1 12 0 254.332 69.9541 20.1395
6 1 15 0 254.774 71.8694 23.3877
7 1 7 -0.75 253.234 70.8828 26.8924
8 1 18 0 252.027 66.9573 28.0057
9 1 15 0 253.487 64.8215 31.1494
10 1 10 0 251.822 62.0841 33.3481
11 1 8 -0.75 248.121 62.6425 32.1687
12 1 18 0 247.128 60.4956 34.4938
13 1 18 0 243.976 58.6084 35.1665
14 1 11 0 244.442 55.2424 33.2408
15 1 15 0 246.809 55.9276 30.4273
16 1 12 0 249.413 56.1566 27.34
17 1 8 -0.75 248.162 52.5544 26.8809
18 1 4 0 246.76 50.4886 24.0487
19 1 14 0 247.626 50.3677 20.1296
20 1 15 0 245.358 53.1905 18.8094
21 1 7 -0.75 244.038 55.6303 15.8771
22 1 11 0 247.072 57.5144 14.352
23 1 13 0 250.336 58.926 15.4612
24 1 3 0.75 254.11 58.9014 14.6293
25 1 11 0 256.008 60.3653 11.6791
26 1 11 0 253.186 63.0343 10.5865
27 1 18 0 250.063 62.8743 8.52235
28 1 8 -0.75 250.182 64.16 5.06988
29 1 17 0 246.993 64.5485 2.79646
30 1 17 0 243.525 62.5648 3.26648
31 1 10 0 241.251 60.4533 5.58138
32 1 11 0 241.162 56.9799 4.93232
33 1 15 0 241.857 56.9437 1.19285
34 1 18 0 240.134 53.4337 0.595904
35 1 11 0 239.162 50.9506 -1.95252
36 1 18 0 238.135 53.5476 -4.80382
37 1 15 0 236.981 56.2019 -2.29955
38 1 12 0 234.412 58.4863 -1.12785
39 1 6 0 231.146 60.5998 -1.5213
40 1 1 0 227.72 61.8525 -2.61739
41 1 7 -0.75 226.9 65.1572 -2.26472
42 1 7 -0.75 224.377 66.1748 -5.05042
43 1 11 0 224.742 69.8251 -4.51561
44 1 1 0 221.326 71.8968 -4.51606
45 1 11 0 224.038 74.7245 -3.97908
46 1 15 0 227.653 75.1761 -3.55102
47 1 18 0 231.699 74.1093 -3.25498
48 1 7 -0.75 234.864 73.5781 -5.4761
49 1 7 -0.75 233.764 71.1304 -8.02455
50 1 20 0 236.211 68.6215 -9.79656
51 1 8 -0.75 236.881 64.8083 -8.32893
52 1 12 0 236.483 60.8081 -7.41081
53 1 13 0 233.078 58.704 -8.05034
54 1 14 0 230.333 58.566 -11.0459
55 1 4 0 228.261 61.0716 -13.2224
56 1 8 -0.75 227.9 64.9296 -12.3117
57 1 7 -0.75 224.717 64.4464 -10.7888
58 1 18 0 220.962 65.0003 -9.77792
59 1 2 0 221.039 68.8995 -9.95979
60 1 18 0 218.049 70.3161 -9.13292
61 1 7 -0.75 215.617 68.0024 -10.6198
62 1 8 -0.75 212.106 69.2048 -11.3797
63 1 6 0 210.508 67.4191 -13.9929
64 1 18 0 209.573 63.6223 -13.1594
65 1 5 0.75 206.639 64.6682 -10.6924
66 1 1 0 205.807 66.0633 -7.17654
67 1 18 0 204.065 66.3559 -3.94037
68 1 8 -0.75 201.267 63.9615 -3.61639
69 1 6 0 197.83 64.2588 -4.71236
70 1 6 0 197.226 65.5766 -8.297
71 1 18 0 198.858 68.0889 -10.6953
72 1 18 0 198.661 71.8777 -11.6894
73 1 10 0 197.002 75.1639 -10.3054
74 1 6 0 198.292 78.7681 -11.4486
75 1 18 0 195.687 79.9619 -8.80709
76 1 6 0 192.525 79.1316 -6.98596
77 1 18 0 189.759 81.7792 -7.73807
78 1 6 0 190.682 82.6164 -4.03371
79 1 6 0 193.01 85.0928 -5.07149
80 1 18 0 195.53 85.2256 -2.90027
81 1 4 0 198.773 87.8592 -2.19643
82 1 18 0 202.176 88.4427 -4.09407
83 1 6 0 201.019 90.4658 -7.32298
84 1 6 0 201.561 93.5972 -5.53317
85 1 18 0 199.753 95.7099 -8.38578
86 1 6 0 201.101 99.2296 -8.74016
87 1 18 0 204.235 99.7274 -6.68742
88 1 6 0 207.348 101.699 -5.57613
89 1 18 0 209.101 103.663 -2.68711
90 1 15 0 205.485 103.864 -1.41789
91 1 13 0 202.77 101.231 -0.151239
92 1 18 0 201.245 102.808 2.91056
93 1 11 0 201.694 106.584 2.9075
ITEM: TIMESTEP
500000
ITEM: NUMBER OF ATOMS
93
ITEM: BOX BOUNDS pp pp pp
-3.0000000000000000e+02 3.0000000000000000e+02
-3.0000000000000000e+02 3.0000000000000000e+02
-3.0000000000000000e+02 3.0000000000000000e+02
ITEM: ATOMS id mol type q xu yu zu
1 1 1 0 228.096 23.2204 44.3768
2 1 8 -0.75 228.088 24.9044 40.8651
3 1 8 -0.75 225.934 22.6257 38.7833
4 1 18 0 225.307 20.9896 35.3907
5 1 12 0 226.279 21.4911 31.7926
6 1 15 0 223.337 22.2753 28.9639
7 1 7 -0.75 221.274 19.3042 28.0814
8 1 18 0 221.458 15.8499 26.527
9 1 15 0 221.335 17.5626 23.1178
10 1 10 0 220.077 18.7003 19.7791
11 1 8 -0.75 221.358 21.3317 17.2669
12 1 18 0 221.46 21.6559 13.7067
13 1 18 0 221.254 25.1692 12.4034
14 1 11 0 223.166 27.6575 10.4126
15 1 15 0 221.283 27.2489 7.0119
16 1 12 0 222.071 30.8975 5.98917
17 1 8 -0.75 219.802 32.9241 8.21871
18 1 4 0 216.783 30.5244 8.49646
19 1 14 0 216.196 30.1178 12.334
20 1 15 0 217.502 28.2694 15.1057
21 1 7 -0.75 215.72 26.6758 18.0298
22 1 11 0 213.648 23.5302 18.4539
23 1 13 0 211.015 21.5659 19.9374
24 1 3 0.75 207.363 22.0718 19.3645
25 1 11 0 204.605 19.5694 19.643
26 1 11 0 205.832 15.8037 17.9979
27 1 18 0 205.534 17.2572 14.4294
28 1 8 -0.75 203.668 16.9988 10.9656
29 1 17 0 203.338 19.8643 8.20363
30 1 17 0 201.878 22.2805 6.11546
31 1 10 0 202.737 25.9341 5.47516
32 1 11 0 202.559 29.2609 7.50097
33 1 15 0 202.513 33.1779 6.75355
34 1 18 0 200.049 33.9603 4.13043
35 1 11 0 197.715 35.7236 2.05584
36 1 18 0 195.26 38.7508 2.97155
37 1 15 0 194.001 38.9281 6.5168
38 1 12 0 191.499 41.492 7.20343
39 1 6 0 189.796 44.7208 8.59478
40 1 1 0 189.613 48.2623 7.59781
41 1 7 -0.75 186.545 47.6445 4.86876
42 1 7 -0.75 182.772 47.8977 5.41364
43 1 11 0 179.743 46.4163 5.30892
44 1 1 0 177.144 47.4844 3.01516
45 1 11 0 176.762 51.2739 4.09483
46 1 15 0 177.885 51.8713 7.82463
47 1 18 0 181.12 53.3537 9.13356
48 1 7 -0.75 182.151 56.8514 8.17129
49 1 7 -0.75 180.811 58.2209 4.8551
50 1 20 0 178.027 60.4224 3.99752
51 1 8 -0.75 180.225 63.5098 2.65761
52 1 12 0 179.55 66.4031 4.86391
53 1 13 0 178.343 69.7773 3.79211
54 1 14 0 176.884 72.2168 1.52653
55 1 4 0 178.121 74.8894 -1.42077
56 1 8 -0.75 175.899 76.6086 -4.42856
57 1 7 -0.75 173.805 77.9753 -7.35694
58 1 18 0 174.345 79.257 -10.8498
59 1 2 0 176.276 76.25 -11.5995
60 1 18 0 179.125 74.2968 -9.28569
61 1 7 -0.75 181.118 73.1342 -6.0404
62 1 8 -0.75 184.119 71.8261 -4.22802
63 1 6 0 187.439 70.1845 -4.20227
64 1 18 0 189.988 67.7358 -5.82624
65 1 5 0.75 192.002 65.9163 -3.08482
66 1 1 0 194.563 68.2558 -1.4207
67 1 18 0 192.581 71.7863 -0.383497
68 1 8 -0.75 192.918 75.1864 1.15293
69 1 6 0 195.987 77.5747 0.399754
70 1 6 0 198.821 75.985 -1.49532
71 1 18 0 199.564 73.798 -4.92111
72 1 18 0 201.587 70.8544 -4.08691
73 1 10 0 201.128 68.8826 -0.647809
74 1 6 0 200.954 65.3388 -1.66821
75 1 18 0 202.256 63.2151 1.26721
76 1 6 0 204.849 63.4278 4.4494
77 1 18 0 205.947 66.0305 7.14339
78 1 6 0 205.545 69.7399 5.76919
79 1 6 0 203.111 72.5958 5.84118
80 1 18 0 205.329 75.5825 6.05963
81 1 4 0 205.058 78.383 3.46011
82 1 18 0 207.948 80.9807 4.31156
83 1 6 0 208.846 83.515 1.54774
84 1 6 0 206.392 86.3525 0.675926
85 1 18 0 203.711 88.9691 1.405
86 1 6 0 200.161 88.3307 2.19102
87 1 18 0 200.199 84.3465 1.27748
88 1 6 0 198.87 81.8906 3.78037
89 1 18 0 196.829 84.7655 5.50272
90 1 15 0 194.251 82.2633 6.82532
91 1 13 0 191.309 81.6751 4.6999
92 1 18 0 187.617 80.7971 6.21012
93 1 11 0 183.854 81.4172 5.53855
ITEM: TIMESTEP
600000
ITEM: NUMBER OF ATOMS
93
ITEM: BOX BOUNDS pp pp pp
-3.0000000000000000e+02 3.0000000000000000e+02
-3.0000000000000000e+02 3.0000000000000000e+02
-3.0000000000000000e+02 3.0000000000000000e+02
ITEM: ATOMS id mol type q xu yu zu
1 1 1 0 215.486 56.8362 62.7127
2 1 8 -0.75 213.699 53.1486 63.3265
3 1 8 -0.75 211.177 50.4294 64.2593
4 1 18 0 210.364 49.4392 60.549
5 1 12 0 208.951 48.4774 57.0581
6 1 15 0 206.694 48.9437 53.7815
7 1 7 -0.75 205.408 45.4913 52.7256
8 1 18 0 202.067 43.6302 51.5314
9 1 15 0 199.004 46.1677 52.0233
10 1 10 0 195.536 45.76 50.9473
11 1 8 -0.75 193.235 43.2984 49.1689
12 1 18 0 191.877 39.7962 48.8245
13 1 18 0 194.421 37.0919 47.8978
14 1 11 0 196.586 36.2683 44.5962
15 1 15 0 194.25 38.5702 42.4107
16 1 12 0 195.506 41.4817 40.4152
17 1 8 -0.75 198.577 43.063 41.3772
18 1 4 0 199.307 45.4373 38.3548
19 1 14 0 195.947 47.2724 37.277
20 1 15 0 193.321 45.2873 35.4457
21 1 7 -0.75 190.894 45.6314 32.7165
22 1 11 0 190.7 46.5755 28.9426
23 1 13 0 192.435 45.959 25.9255
24 1 3 0.75 192.554 42.9492 24.5514
25 1 11 0 190.778 40.3826 22.5284
26 1 11 0 192.755 41.539 19.2564
27 1 18 0 193.502 44.8683 17.9944
28 1 8 -0.75 190.639 47.1469 17.6849
29 1 17 0 191.489 50.9058 17.9768
30 1 17 0 193.926 53.5155 19.4565
31 1 10 0 196.9 51.554 19.9989
32 1 11 0 198.195 51.2166 16.1885
33 1 15 0 201.347 52.176 14.2209
34 1 18 0 202.154 54.2804 11.0449
35 1 11 0 198.93 56.3306 12.2083
36 1 18 0 199.825 59.1993 14.7494
37 1 15 0 201.554 62.0775 13.94
38 1 12 0 204.971 62.2446 12.1198
39 1 6 0 208.711 61.5876 13.3342
40 1 1 0 209.438 57.8445 13.5105
41 1 7 -0.75 210.752 57.9909 9.914
42 1 7 -0.75 214.18 59.9961 9.4466
43 1 11 0 213.582 63.512 8.67879
44 1 1 0 211.599 65.3163 5.82131
45 1 11 0 211.759 69.0304 7.03246
46 1 15 0 211.674 69.402 11.2863
47 1 18 0 210.215 70.1716 14.692
48 1 7 -0.75 213.425 71.4527 16.2721
49 1 7 -0.75 212.823 72.7912 19.8395
50 1 20 0 211.534 69.686 21.4843
51 1 8 -0.75 209.708 69.9671 25.1061
52 1 12 0 210.124 73.9658 26.6592
53 1 13 0 209.795 76.8779 24.1585
54 1 14 0 206.405 77.4163 22.118
55 1 4 0 204.464 80.5811 22.5327
56 1 8 -0.75 206.045 84.0053 22.3089
57 1 7 -0.75 209.282 83.3391 20.6202
58 1 18 0 209.277 84.6323 17.0996
59 1 2 0 210.888 88.5847 16.1353
60 1 18 0 212.454 89.8767 13.0576
61 1 7 -0.75 209.699 91.9694 11.257
62 1 8 -0.75 207.552 91.7031 7.96536
63 1 6 0 210.254 89.6203 6.29254
64 1 18 0 213.748 89.2958 4.90862
65 1 5 0.75 214.972 89.5374 1.22892
66 1 1 0 216.771 86.2934 0.205552
67 1 18 0 217.902 83.4142 -1.87546
68 1 8 -0.75 219.439 80.1617 -2.38015
69 1 6 0 221.767 80.8246 -5.54429
70 1 6 0 224.031 82.7751 -8.06635
71 1 18 0 228.026 83.4615 -8.41559
72 1 18 0 229.221 83.598 -4.5416
73 1 10 0 227.833 81.2015 -2.01152
74 1 6 0 229.71 78.0268 -0.291403
75 1 18 0 230.301 79.0372 3.4019
76 1 6 0 227.681 76.2696 3.69791
77 1 18 0 226.331 73.4854 1.57353
78 1 6 0 227.459 71.1301 4.55393
79 1 6 0 230.002 68.2639 3.92382
80 1 18 0 228.237 65.2937 5.33703
81 1 4 0 226.549 62.2799 4.00827
82 1 18 0 223.861 63.4416 1.17309
83 1 6 0 223.315 61.2787 -1.7451
84 1 6 0 224.308 58.5078 -4.0635
85 1 18 0 224.313 55.1426 -6.2934
86 1 6 0 220.797 55.1026 -6.88015
87 1 18 0 218.609 57.6062 -8.55471
88 1 6 0 219.783 60.4527 -10.9964
89 1 18 0 222.202 61.8802 -13.9649
90 1 15 0 220.047 65.0274 -12.7598
91 1 13 0 219.693 67.9486 -15.0604
92 1 18 0 221.266 71.1937 -13.4119
93 1 11 0 221.874 74.7478 -11.8936
ITEM: TIMESTEP
700000
ITEM: NUMBER OF ATOMS
93
ITEM: BOX BOUNDS pp pp pp
-3.0000000000000000e+02 3.0000000000000000e+02
-3.0000000000000000e+02 3.0000000000000000e+02
-3.0000000000000000e+02 3.0000000000000000e+02
ITEM: ATOMS id mol type q xu yu zu
1 1 1 0 216.68 30.9265 56.3137
2 1 8 -0.75 214.103 33.0813 56.7802
3 1 8 -0.75 210.82 35.2589 56.2647
4 1 18 0 207.183 33.8052 56.5096
5 1 12 0 206.033 30.6868 57.6876
6 1 15 0 202.574 31.7625 59.2225
7 1 7 -0.75 200.539 34.6805 57.6505
8 1 18 0 201.804 37.7714 59.7683
9 1 15 0 203.416 40.4171 61.7398
10 1 10 0 202.258 40.4968 65.0633
11 1 8 -0.75 198.82 42.0182 64.5383
12 1 18 0 197.35 44.9588 62.7369
13 1 18 0 200.266 47.9021 62.6171
14 1 11 0 203.715 49.1143 61.2463
15 1 15 0 205.814 46.824 59.4491
16 1 12 0 209.61 46.7229 60.6101
17 1 8 -0.75 211.232 50.2312 62.2678
18 1 4 0 208.539 52.4208 61.6184
19 1 14 0 206.412 55.6446 62.2946
20 1 15 0 203.629 56.9131 64.898
21 1 7 -0.75 204.074 55.052 68.1142
22 1 11 0 207.315 55.148 70.1784
23 1 13 0 211.092 55.1488 70.6817
24 1 3 0.75 214.811 55.2173 69.411
25 1 11 0 217.168 52.9701 68.1367
26 1 11 0 218.932 52.4055 64.8379
27 1 18 0 219.263 53.7903 61.1646
28 1 8 -0.75 216.327 55.3748 58.9594
29 1 17 0 212.705 55.851 57.9748
30 1 17 0 209.967 54.7769 55.5674
31 1 10 0 208.754 51.5456 53.9013
32 1 11 0 209.816 51.3736 50.0271
33 1 15 0 211.293 53.8328 47.3581
34 1 18 0 214.149 55.4522 46.1575
35 1 11 0 216.889 52.7182 46.5266
36 1 18 0 215.3 49.1409 45.8814
37 1 15 0 215.417 47.8121 42.1162
38 1 12 0 212.921 47.1946 39.0504
39 1 6 0 210.251 44.4276 39.0369
40 1 1 0 207.022 42.823 38.0846
41 1 7 -0.75 206.019 40.0622 40.7009
42 1 7 -0.75 207.172 36.1814 42.212
43 1 11 0 203.899 35.8263 43.625
44 1 1 0 203.323 35.5628 47.2665
45 1 11 0 200.715 32.8815 48.036
46 1 15 0 196.918 32.638 49.0462
47 1 18 0 195.103 32.4916 45.6909
48 1 7 -0.75 191.352 33.1876 45.0559
49 1 7 -0.75 191.176 30.4443 42.1883
50 1 20 0 189.877 31.955 39.1099
51 1 8 -0.75 189.062 30.6995 35.4106
52 1 12 0 187.916 32.4098 32.276
53 1 13 0 187.471 32.4126 28.9432
54 1 14 0 187.603 33.7453 25.5125
55 1 4 0 187.763 31.4053 22.4983
56 1 8 -0.75 187.478 28.1627 20.9154
57 1 7 -0.75 187.702 26.8324 24.318
58 1 18 0 188.437 25.5626 27.9682
59 1 2 0 187.768 21.6921 28.9938
60 1 18 0 188.835 18.4219 30.5947
61 1 7 -0.75 191.616 20.0889 32.4172
62 1 8 -0.75 193.394 23.1446 31.2607
63 1 6 0 194.331 25.5424 28.4915
64 1 18 0 195.495 27.8125 25.5745
65 1 5 0.75 193.693 31.2439 24.6751
66 1 1 0 196.045 33.866 26.8616
67 1 18 0 198.854 36.3397 26.5558
68 1 8 -0.75 201.993 35.0248 28.323
69 1 6 0 203.077 34.161 24.8388
70 1 6 0 204.879 31.1146 24.1254
71 1 18 0 204.301 29.6024 27.5489
72 1 18 0 201.979 28.8697 30.6274
73 1 10 0 201.093 29.5724 34.2238
74 1 6 0 202.115 25.7897 35.44
75 1 18 0 202.908 22.155 34.6335
76 1 6 0 205.601 21.5023 36.2383
77 1 18 0 208.516 23.3156 35.2037
78 1 6 0 211.094 23.4034 32.2745
79 1 6 0 210.036 20.7292 29.6514
80 1 18 0 208.555 17.9427 31.6963
81 1 4 0 207.027 14.577 31.9023
82 1 18 0 206.435 10.8424 33.2658
83 1 6 0 209.513 9.65006 31.0809
84 1 6 0 212.951 9.4749 32.8064
85 1 18 0 214.844 9.34982 29.5765
86 1 6 0 217.968 7.28668 29.1531
87 1 18 0 219.761 5.91783 32.4052
88 1 6 0 220.212 9.45726 33.9211
89 1 18 0 219.966 13.0862 33.5546
90 1 15 0 218.354 15.9428 31.3839
91 1 13 0 215.534 18.0297 32.3006
92 1 18 0 217.006 21.7043 33.3865
93 1 11 0 215.774 24.7215 35.3026
ITEM: TIMESTEP
800000
ITEM: NUMBER OF ATOMS
93
ITEM: BOX BOUNDS pp pp pp
-3.0000000000000000e+02 3.0000000000000000e+02
-3.0000000000000000e+02 3.0000000000000000e+02
-3.0000000000000000e+02 3.0000000000000000e+02
ITEM: ATOMS id mol type q xu yu zu
1 1 1 0 196.116 45.6496 62.2897
2 1 8 -0.75 197.407 42.2952 61.228
3 1 8 -0.75 193.808 40.556 61.6569
4 1 18 0 193.182 40.0715 57.7972
5 1 12 0 190.622 38.9544 54.9381
6 1 15 0 187.777 39.2073 53.0318
7 1 7 -0.75 185.736 42.2679 53.2804
8 1 18 0 182.484 42.2394 54.6934
9 1 15 0 183.062 40.9315 58.0621
10 1 10 0 181.984 39.9624 61.5193
11 1 8 -0.75 178.919 37.5803 60.7565
12 1 18 0 177.103 39.3523 57.9288
13 1 18 0 175.854 37.3922 54.8557
14 1 11 0 176.467 34.2217 52.6341
15 1 15 0 173.268 32.8637 54.6209
16 1 12 0 170.279 33.2284 57.2225
17 1 8 -0.75 169.25 36.8136 57.6118
18 1 4 0 168.982 39.8627 55.4839
19 1 14 0 169.153 42.801 52.976
20 1 15 0 171.471 42.476 50.0748
21 1 7 -0.75 173.336 44.7879 47.6077
22 1 11 0 175.768 47.4955 49.6842
23 1 13 0 177.448 49.6079 46.8315
24 1 3 0.75 181.085 50.5241 47.5631
25 1 11 0 182.647 50.2788 51.3625
26 1 11 0 184.834 52.4573 53.3311
27 1 18 0 187.671 55.2493 54.2297
28 1 8 -0.75 189.663 56.3228 51.4511
29 1 17 0 191.202 59.7249 51.4642
30 1 17 0 194.102 61.5159 53.2564
31 1 10 0 196.417 64.2418 53.444
32 1 11 0 198.086 65.3963 50.318
33 1 15 0 201.115 67.3176 49.2468
34 1 18 0 205.165 67.335 49.4076
35 1 11 0 207.618 65.5032 47.1696
36 1 18 0 210.185 64.1033 44.2297
37 1 15 0 212.697 65.5466 41.9286
38 1 12 0 216.143 64.4886 40.5007
39 1 6 0 215.642 61.1075 42.1233
40 1 1 0 213.951 57.831 40.9179
41 1 7 -0.75 215.415 54.8209 43.3083
42 1 7 -0.75 219.052 54.6619 42.0396
43 1 11 0 222.541 53.6842 41.2688
44 1 1 0 221.624 54.3773 37.5065
45 1 11 0 223.451 51.041 36.5816
46 1 15 0 224.081 47.4459 36.9215
47 1 18 0 221.832 44.8284 38.8589
48 1 7 -0.75 223.063 41.6329 40.5303
49 1 7 -0.75 223.651 39.3115 37.4632
50 1 20 0 222.178 38.9654 33.5792
51 1 8 -0.75 225.779 40.3827 32.5643
52 1 12 0 229.717 40.1531 32.1003
53 1 13 0 231.066 36.9671 33.3626
54 1 14 0 232.302 34.5385 31.1595
55 1 4 0 233.214 32.6624 27.9993
56 1 8 -0.75 232.878 33.0804 24.3123
57 1 7 -0.75 231.322 29.8068 23.4344
58 1 18 0 233.566 28.6902 20.5683
59 1 2 0 231.619 30.6898 18.1457
60 1 18 0 229.88 28.1497 15.8195
61 1 7 -0.75 228.861 24.7974 18.2346
62 1 8 -0.75 229.893 21.5121 16.2785
63 1 6 0 229.051 18.572 18.4399
64 1 18 0 225.393 17.7371 19.0771
65 1 5 0.75 222.6 16.3067 21.1129
66 1 1 0 221.322 16.0073 24.6109
67 1 18 0 218.677 15.4703 27.3992
68 1 8 -0.75 216.765 18.1153 28.3267
69 1 6 0 216.85 19.1702 32.0544
70 1 6 0 216.518 16.4391 34.9001
71 1 18 0 215.636 13.5973 33.2138
72 1 18 0 211.589 13.7837 31.7592
73 1 10 0 209.389 16.3777 33.2971
74 1 6 0 206.392 17.5015 31.6771
75 1 18 0 204.108 19.5119 34.3314
76 1 6 0 204.384 22.9898 35.8287
77 1 18 0 201.017 23.125 37.131
78 1 6 0 203.4 21.6963 40.2806
79 1 6 0 205.374 23.98 42.5698
80 1 18 0 205.931 26.8854 40.106
81 1 4 0 208.852 28.9451 38.231
82 1 18 0 210.267 30.4085 41.4747
83 1 6 0 209.722 32.2704 44.6863
84 1 6 0 209.75 36.0283 43.6682
85 1 18 0 209.492 35.6877 39.9183
86 1 6 0 211.372 39.1307 39.6477
87 1 18 0 211.858 41.7341 36.6375
88 1 6 0 215.179 39.2376 37.2501
89 1 18 0 217.617 36.6187 38.2695
90 1 15 0 218.232 34.2554 35.2679
91 1 13 0 215.875 33.6183 32.6656
92 1 18 0 213.714 36.5205 32.0777
93 1 11 0 214.181 40.3681 32.0186
ITEM: TIMESTEP
900000
ITEM: NUMBER OF ATOMS
93
ITEM: BOX BOUNDS pp pp pp
-3.0000000000000000e+02 3.0000000000000000e+02
-3.0000000000000000e+02 3.0000000000000000e+02
-3.0000000000000000e+02 3.0000000000000000e+02
ITEM: ATOMS id mol type q xu yu zu
1 1 1 0 145.438 81.3 60.5744
2 1 8 -0.75 147.178 80.8444 64.0579
3 1 8 -0.75 149.872 78.5366 62.6294
4 1 18 0 153.108 78.0445 64.7347
5 1 12 0 156.438 79.3755 66.4954
6 1 15 0 159.735 79.8306 65.0529
7 1 7 -0.75 161.831 82.9557 64.9387
8 1 18 0 164.995 83.4952 63.17