ITEM: TIMESTEP
100000
ITEM: NUMBER OF ATOMS
50
ITEM: BOX BOUNDS pp pp pp
-3.0000000000000000e+02 3.0000000000000000e+02
-3.0000000000000000e+02 3.0000000000000000e+02
-3.0000000000000000e+02 3.0000000000000000e+02
ITEM: ATOMS id mol type q xu yu zu
1 1 3 0.75     145.529673503901    -45.5821803044588     17.2225471454187
2 1 3 0.75     148.781054817112    -44.4346889731362     19.4108617643889
3 1 3 0.75     151.538266278283    -42.1570538887078     17.4891396263967
4 1 3 0.75     154.296152683557    -43.2013793704471     20.4431687671898
5 1 3 0.75     155.168671366429    -39.6725700051569     21.6806420334579
6 1 3 0.75     158.380426376521    -38.4052780372187     23.4697295283459
7 1 3 0.75     161.824211945431     -37.212988787384      22.202406669235
8 1 3 0.75     164.030318607919    -35.0672527676115     20.5179306931836
9 1 3 0.75     165.876645865592    -34.7177671979878     17.1086145321299
10 1 3 0.75     165.778760361398    -35.1750691827416     13.2292247790273
11 1 3 0.75     165.551755816552    -33.4351383396966     9.51011726889193
12 1 3 0.75     165.657697595146    -36.4236234189669     7.01257068092584
13 1 3 0.75     162.466411696129    -38.4576649425339     6.51356274029937
14 1 3 0.75      159.43023734703    -39.5392110968252     4.69392116339232
15 1 3 0.75     156.051548622672    -38.1494301538829     4.83082895291349
16 1 3 0.75     153.002690465535    -37.7023122627558     7.04675565560823
17 1 3 0.75     152.443638168042     -34.710104911837     9.42172814024533
18 1 3 0.75     150.942199812859    -30.9961023690212     8.68941618622084
19 1 3 0.75     153.185405120516    -27.7012532491233     8.62671144165716
20 1 3 0.75     155.970937618856    -25.0278950267786      8.0388294135083
21 1 3 0.75     158.969137570761    -22.9792799394252     6.05625513186281
22 1 3 0.75     162.388814284031     -21.471771155125     7.41536744223944
23 1 3 0.75     165.925002387514    -20.4266853286135     6.34135771230742
24 1 3 0.75     169.578602086655    -20.4698008759716     6.95461796913998
25 1 3 0.75     170.691213548197    -23.4367338366562     4.93398133974314
26 1 8 -0.75     173.009225416781    -24.8894037884727      2.2130172398422
27 1 8 -0.75     172.786890052746    -27.6486360386286     4.73465483288784
28 1 8 -0.75     173.648038261907    -28.0084213532214     8.29188092836962
29 1 8 -0.75     174.550152822012    -30.7208563870568     11.0999731934782
30 1 8 -0.75     171.223248849539     -32.068755499705     11.1671034593817
31 1 8 -0.75     167.980850616798    -30.5570131599219     12.2533722420314
32 1 8 -0.75     167.173513937609    -26.8434934331989     12.4200436794735
33 1 8 -0.75     163.259163627365     -27.752835990382     11.3361674298745
34 1 8 -0.75     160.977985420931    -30.8966730878932     10.3213310845657
35 1 8 -0.75     158.414681448861    -30.6309325980003     7.23789718647652
36 1 8 -0.75     155.950684367735     -29.618913367418     4.76237190792787
37 1 8 -0.75     154.889500508852    -33.1778596291961     3.89321058726665
38 1 8 -0.75     152.024028244008     -35.451825730429     2.91217033297614
39 1 8 -0.75     149.397909756456    -35.3802300848402      5.5710686178551
40 1 8 -0.75     146.129223207653     -33.172066772755     5.91028717772394
41 1 8 -0.75     145.122464432648    -30.8916816074518     8.73233267664035
42 1 8 -0.75     144.082153905841    -28.6498725648891     11.2540049302783
43 1 8 -0.75     146.108785266207    -26.2134428253076     13.1757632455146
44 1 8 -0.75      148.62238321752    -26.1694016262164     16.2006996234107
45 1 8 -0.75      150.21128108783    -29.3577659639613     17.0207005586713
46 1 8 -0.75     151.910305678364      -31.15352361397     13.9652835342684
47 1 8 -0.75     152.846286297908    -34.6070841463715      14.609426577897
48 1 8 -0.75     155.600148359601    -37.1075596148328     16.4697688268711
49 1 8 -0.75     158.197539899214    -38.9639407938652     18.2728424315713
50 1 8 -0.75     161.463903024843    -40.2201794656869     16.8117132676472
ITEM: TIMESTEP
200000
ITEM: NUMBER OF ATOMS
50
ITEM: BOX BOUNDS pp pp pp
-3.0000000000000000e+02 3.0000000000000000e+02
-3.0000000000000000e+02 3.0000000000000000e+02
-3.0000000000000000e+02 3.0000000000000000e+02
ITEM: ATOMS id mol type q xu yu zu
1 1 3 0.75     190.526720730764    -18.9792220420395     40.0267686526008
2 1 3 0.75     192.793688967006    -18.0303023742249     37.3431933107553
3 1 3 0.75     194.539746244485    -17.7413454132698     34.0624632601229
4 1 3 0.75     197.624015926364    -18.8310035291868     32.2743464771976
5 1 3 0.75     196.338085566662    -19.7371131200077     28.6123905751293
6 1 3 0.75     193.018120408717    -20.0438911477109      26.697361844459
7 1 3 0.75     191.474868834785    -19.9708385814533     23.1256506626454
8 1 3 0.75     189.718353632302    -21.0411814164942     19.9618848594325
9 1 3 0.75     191.105580759459    -22.5964790241014     16.6113524612904
10 1 3 0.75     190.292951216065    -19.9011805121463     14.2495208748852
11 1 3 0.75     191.872197378455    -16.4459682581532     14.1864995031013
12 1 3 0.75      192.81450806706    -13.7165016215333     16.3201674072899
13 1 3 0.75     191.496085210926    -10.8687734017696      18.442656653864
14 1 3 0.75     188.889718599814    -7.90735364680715     18.6423215295623
15 1 3 0.75     187.304137817001    -5.92322173230723     21.1949859851661
16 1 3 0.75     184.236371658617    -5.94070930002407     23.3967093005318
17 1 3 0.75      180.69038036678    -5.33763173303468     25.0295965147491
18 1 3 0.75     180.572400615798    -7.91290296394235     28.1451277538779
19 1 3 0.75     182.978272172556    -10.4826273227719     29.0059742917953
20 1 3 0.75     180.546864201096     -12.676400805199     31.2471381998653
21 1 3 0.75     176.872279707094    -12.7301353856864     32.8903901577449
22 1 3 0.75     174.807090902283    -15.8771341173659     33.8550575005279
23 1 3 0.75     175.362369978308    -17.8394277406969     36.8050331214022
24 1 3 0.75     174.308830467551    -16.1580939135056     40.1810098367017
25 1 3 0.75     176.322052471706     -13.490276429159     41.6493732687777
26 1 8 -0.75     175.123879758854    -12.8487346229321      45.185228924277
27 1 8 -0.75     173.235304717475    -10.8308560573761     42.8182786035041
28 1 8 -0.75     175.552416669021    -8.51785510485253     41.1972442584297
29 1 8 -0.75     177.457260398397    -7.24281980079618     44.2419370751475
30 1 8 -0.75     180.113851884427    -8.56578203945579     46.4336247537006
31 1 8 -0.75     180.954257519777    -12.0143080492156     46.2506150277163
32 1 8 -0.75     184.683884692921    -12.9766482347949     45.8511661316328
33 1 8 -0.75     187.220859817505    -12.8851805419083     42.8336156796469
34 1 8 -0.75     186.643065537308    -10.4166197906163     40.0608131140335
35 1 8 -0.75     189.117858063077    -11.4640461378342     37.3862236771802
36 1 8 -0.75     191.926764680341    -10.8060924233818     34.5763669679095
37 1 8 -0.75     192.834580285293    -13.2995507556086     32.0398492499361
38 1 8 -0.75     193.632913288632    -16.0494339688571     29.6436798345973
39 1 8 -0.75     191.285605149707    -15.6850134398507     26.5933333425004
40 1 8 -0.75     189.368976853066    -12.4463812630354     26.5079655483681
41 1 8 -0.75     188.380703999861    -11.5797416744959      22.957503416308
42 1 8 -0.75     185.167025133855    -13.3120446919433     22.1516563793941
43 1 8 -0.75      182.60498438359    -11.9683684790261     25.0176570107315
44 1 8 -0.75     180.382997093099    -14.7045957229158     26.1905167304337
45 1 8 -0.75      179.35095158126    -18.2406251765025     25.4735769620419
46 1 8 -0.75     182.991585334332    -18.9776377322696      23.892048911644
47 1 8 -0.75     184.297035133402    -19.9935658330078     20.3740122141158
48 1 8 -0.75     186.860363152937    -17.7614584392086     18.1157398987442
49 1 8 -0.75     186.027511571539    -15.8020724607223     15.4970904283315
50 1 8 -0.75     186.420096289684    -16.5819531435231     11.7581564438134
ITEM: TIMESTEP
300000
ITEM: NUMBER OF ATOMS
50
ITEM: BOX BOUNDS pp pp pp
-3.0000000000000000e+02 3.0000000000000000e+02
-3.0000000000000000e+02 3.0000000000000000e+02
-3.0000000000000000e+02 3.0000000000000000e+02
ITEM: ATOMS id mol type q xu yu zu
1 1 3 0.75     174.763828535199     -33.520615108322     57.3492146335953
2 1 3 0.75     173.924840815925    -31.4354414908684     60.3925104414568
3 1 3 0.75     176.295726829176    -31.6843395004462     63.3533467746187
4 1 3 0.75     177.079705801375    -35.4384029075624     63.5306417125685
5 1 3 0.75     180.726773896353    -36.7406958938214     64.3983911348572
6 1 3 0.75     182.626506339398    -39.1195487994449     66.8994998062997
7 1 3 0.75     181.193603385551    -42.0165140032507     68.7725985330668
8 1 3 0.75     182.127037629893    -43.2096042077446     72.1096694935332
9 1 3 0.75     185.325879906544    -45.2595093083933     72.9420529410258
10 1 3 0.75     188.340306809576     -42.732646885833     72.4252718619702
11 1 3 0.75     191.416340417686    -42.8255476388207     70.1860428925055
12 1 3 0.75     192.221155812296    -46.4526662925618     70.4363551315527
13 1 3 0.75     191.647415411611    -50.4442032161772     69.4878833436953
14 1 3 0.75     190.922719857264     -52.143034239213     65.7006451749287
15 1 3 0.75     190.351431529421    -48.9780410985548     64.2959642149192
16 1 3 0.75     186.909772012721    -48.0022209168811     62.9200933429138
17 1 3 0.75     187.893875122794    -48.3222848868103     59.4724311204755
18 1 3 0.75     185.508758586697    -46.9229511825763     56.7275685267232
19 1 3 0.75     182.267149640446    -46.0872409979435     54.9028017048864
20 1 3 0.75     181.214015465372    -47.1924249783289     51.3914786498297
21 1 3 0.75     181.689886623397    -45.9499372914614     48.0663352183922
22 1 3 0.75     179.448659570914    -46.4051629816668      44.783172378787
23 1 3 0.75      177.76004844592    -43.1286951310561     43.8594687436074
24 1 3 0.75     174.969441456886    -42.2562342003659     46.2425824417134
25 1 3 0.75     171.980316490475    -43.6845402492149     48.0283135101711
26 1 8 -0.75     174.684253282143     -44.847095669997     50.3298744698042
27 1 8 -0.75     172.449209007819    -42.6444105029903     52.5120927659037
28 1 8 -0.75     169.669801781944    -43.9286685383096     55.1253775747825
29 1 8 -0.75     169.810876628499      -40.25944071591     56.6642056564234
30 1 8 -0.75     171.987395254306     -37.101739515491     56.1427569511556
31 1 8 -0.75     174.763952346145     -37.646918596197     58.7296583977144
32 1 8 -0.75     177.475016175981    -38.4653726118368     56.3861924612755
33 1 8 -0.75     178.975828413842    -41.7088986757663     55.5000676010891
34 1 8 -0.75     182.465150263906    -42.1645638132408     56.7946257869653
35 1 8 -0.75     185.201846393259    -39.7276992295694     58.3144723341084
36 1 8 -0.75     188.521256393368    -40.9419911575226     57.8838880752545
37 1 8 -0.75     190.546038741411    -44.0342705674139     59.1173281258488
38 1 8 -0.75       190.5814971488    -43.1962633191986     63.0614060184362
39 1 8 -0.75      188.82451022907    -42.7237996319815     66.2699924774568
40 1 8 -0.75     187.123703345605    -44.5333406304009     68.9023398636137
41 1 8 -0.75     185.012779961709    -47.6303545084383     68.1862343906523
42 1 8 -0.75     182.068330061397    -49.2599407190287     70.1611376959532
43 1 8 -0.75     182.882283660472    -51.9668172137168     72.6875841540821
44 1 8 -0.75     186.807845594608    -51.6088033098651     71.8297506447624
45 1 8 -0.75     189.156550207322    -48.5766299290986     73.2245463129998
46 1 8 -0.75     192.407538729803    -46.8231886252184     74.2010135549481
47 1 8 -0.75     195.450419514597    -44.9926498601368     74.6530779779319
48 1 8 -0.75     198.410481462825    -43.4963850010339     76.1637073137227
49 1 8 -0.75     201.614116879375    -42.1067263774433     77.2123634738067
50 1 8 -0.75     203.767021658091    -39.2732377763703     77.6514367885304
ITEM: TIMESTEP
400000
ITEM: NUMBER OF ATOMS
50
ITEM: BOX BOUNDS pp pp pp
-3.0000000000000000e+02 3.0000000000000000e+02
-3.0000000000000000e+02 3.0000000000000000e+02
-3.0000000000000000e+02 3.0000000000000000e+02
ITEM: ATOMS id mol type q xu yu zu
1 1 3 0.75     145.829640847621    -78.3637938417934     89.6769371265714
2 1 3 0.75     149.578055410227    -79.1775655163686     89.8587338716477
3 1 3 0.75     152.878741939454    -80.6909455024936     88.9785672707786
4 1 3 0.75     154.946403568167    -79.8775180341007     92.2282336898316
5 1 3 0.75     157.426133212599    -80.8186323273412     94.8878054339974
6 1 3 0.75     160.301642490839    -79.8220324370607     97.4359944837109
7 1 3 0.75     158.065911568547    -78.8027150098036     100.389338789917
8 1 3 0.75     155.377503336809    -77.4800302995734     102.453782898637
9 1 3 0.75     154.172580554757    -73.6733787325351      103.50583586958
10 1 3 0.75     150.964645521509    -72.0936259088647     103.665342002557
11 1 3 0.75     148.411454629531    -74.5417110889875     101.904437366354
12 1 3 0.75     146.080071149927    -71.6784712685431     100.158280074243
13 1 3 0.75     146.180645843522    -69.7803735232575     96.7733267685851
14 1 3 0.75      150.04586192113    -68.6089103115984     96.1218509423295
15 1 3 0.75     153.258751851015    -67.5705954046531     97.3866626091616
16 1 3 0.75     156.836191671487    -66.9533387034618     97.4897562679245
17 1 3 0.75     160.462455255491    -67.7739464000551     97.3982016779306
18 1 3 0.75     162.974993141957    -65.3994503894422     95.3756001374927
19 1 3 0.75     163.477129630525    -62.2062349780132     93.2660695384428
20 1 3 0.75     162.709547097677    -60.2299457237134     89.9759334216957
21 1 3 0.75     162.960773645609     -56.401268552179     90.7356415986317
22 1 3 0.75     163.620695339433    -53.2991302024852     89.6303823765059
23 1 3 0.75     163.917721849528    -49.6780002434417     89.9849253121504
24 1 3 0.75     162.810341290137     -47.476453234904     92.7341801739603
25 1 3 0.75     159.026856208996    -48.3473348970155     93.2181353786996
26 1 8 -0.75     156.260270221728    -50.0303750777721     95.5212580226945
27 1 8 -0.75     155.469484030595    -51.3798073981981     92.2870930701926
28 1 8 -0.75     152.395470229456    -49.5587928896941     90.7977651103319
29 1 8 -0.75     149.781483545733    -51.5873927018644     92.7680009317527
30 1 8 -0.75     149.997164911491    -55.3040465927898      93.224109116142
31 1 8 -0.75     152.809658407001    -57.3934238528785      94.606310788295
32 1 8 -0.75     155.127281924433    -60.6114743614616     95.1963297629715
33 1 8 -0.75     156.865678064821      -62.40795397266     97.7861877359451
34 1 8 -0.75     156.208303392137    -64.1739844090219     100.962601235307
35 1 8 -0.75     154.982919955571    -67.0440451337807     103.455575161661
36 1 8 -0.75     157.843154369985    -69.2646516765971     105.432098080881
37 1 8 -0.75     159.435718528938    -72.8588925503031     104.903166488265
38 1 8 -0.75     163.160445670155     -72.386661489611     105.038334206766
39 1 8 -0.75     165.028341526326    -71.1340379382132     101.522548852479
40 1 8 -0.75     164.268188789792    -73.9545149047873     98.6176827545214
41 1 8 -0.75     164.213219375969    -74.6425523314287     94.8985077565203
42 1 8 -0.75     160.873620059035    -75.9948976266521     93.5252164223672
43 1 8 -0.75     157.887647831184    -73.6471437794283     93.5956868912171
44 1 8 -0.75     154.852969377182    -74.5076125549935     91.6371064571861
45 1 8 -0.75     151.193150015432    -75.8968448643314     93.3481846271554
46 1 8 -0.75     152.976108040101    -76.2614389264487     97.2403221045389
47 1 8 -0.75     150.617816335649    -77.6594601099412     99.7620389638274
48 1 8 -0.75     148.450152776936    -79.1304678323344     102.632396121274
49 1 8 -0.75     144.726589086234    -79.4313724466398     102.788139720602
50 1 8 -0.75     142.736919656407    -78.0712572532074      99.927158989591
ITEM: TIMESTEP
500000
ITEM: NUMBER OF ATOMS
50
ITEM: BOX BOUNDS pp pp pp
-3.0000000000000000e+02 3.0000000000000000e+02
-3.0000000000000000e+02 3.0000000000000000e+02
-3.0000000000000000e+02 3.0000000000000000e+02
ITEM: ATOMS id mol type q xu yu zu
1 1 3 0.75     103.959257875608    -55.9605363931559     118.440382678574
2 1 3 0.75     105.952885804105    -52.9339172504382     117.590980089904
3 1 3 0.75     108.105629073152    -50.6835317115228     115.282201759625
4 1 3 0.75     111.256440442738    -50.7582204176673     113.447124924337
5 1 3 0.75     110.918905143187    -52.5610927245971     110.239967356995
6 1 3 0.75     109.838454897138    -55.6378632761126     108.282480164153
7 1 3 0.75     110.583399921201    -58.4753413268309     105.941113267042
8 1 3 0.75      107.08276594703    -58.3468682863305      104.05660570332
9 1 3 0.75     104.209441707659    -56.5953933022811     104.502488132212
10 1 3 0.75     102.990034908515    -54.8005555992183     101.468581417753
11 1 3 0.75     102.883713952012    -55.6002432981238     97.5327037739311
12 1 3 0.75     102.725588492915    -52.0702305454029     95.4706957306829
13 1 3 0.75      99.571080613678    -50.7602615510926     94.3883045117403
14 1 3 0.75      96.877012472868    -49.5836183549495     91.6799461935996
15 1 3 0.75     96.9262781705413    -45.9062098402469     91.2554277223827
16 1 3 0.75     93.8238124574414    -43.2718293716581     92.3126582364607
17 1 3 0.75     93.6650746527268    -42.3193608212668     88.2924390416589
18 1 3 0.75     90.0678766685084     -41.553642001801     86.9964578870065
19 1 3 0.75     86.8657224773274    -42.2392789272623     90.0148544853778
20 1 3 0.75     83.5597762837334    -43.0216526232521     92.1720925058662
21 1 3 0.75     84.2379129864515    -46.4729208905589     93.8172840962739
22 1 3 0.75     81.2805195188275      -47.16014902414     95.9345757026978
23 1 3 0.75     79.5815514064226    -50.2183474524415     97.1980192666609
24 1 3 0.75     80.0886109118832    -52.8148490615887     94.1195002878776
25 1 3 0.75     79.5742559733068    -53.9805667522051     90.4120143596335
26 1 8 -0.75     77.3278069520956    -51.0841019886145     90.8578187630096
27 1 8 -0.75     77.5505977565809     -47.728055768165     88.4000954804388
28 1 8 -0.75     79.7494201465751     -44.972010244548     88.4961754514444
29 1 8 -0.75     81.8307342041777    -44.9726043440124      85.335898691401
30 1 8 -0.75     85.3861882914509    -46.9171250484133      84.733665261463
31 1 8 -0.75     87.5935832183731     -49.535218081635     86.3898624144374
32 1 8 -0.75     90.8991912010518     -50.659120769746     88.1077325372554
33 1 8 -0.75     91.0682950692237    -48.1634341571632     91.0374442364326
34 1 8 -0.75     92.0622772434144    -48.6334915282544     94.5756024469645
35 1 8 -0.75     91.2388567297109    -49.6865517077857     98.0471044656395
36 1 8 -0.75     93.9244378581495    -51.6542130714666     100.268641148854
37 1 8 -0.75     97.7854518048076    -52.2675684034325     101.054500735168
38 1 8 -0.75     100.168522137122    -51.1142938909377     103.506169960188
39 1 8 -0.75     101.783884303357    -53.1850983749844     106.346476991375
40 1 8 -0.75     101.485380871717    -55.7865179526825     109.234943587908
41 1 8 -0.75     104.073687022113    -57.5706325460489     111.482544966022
42 1 8 -0.75     107.325755984244    -59.6305597881212     111.594600060382
43 1 8 -0.75     110.929569483087    -58.6022129964879     112.846786586164
44 1 8 -0.75      114.23966490676    -57.0244873662127     111.992218212153
45 1 8 -0.75     117.178990552393    -58.9095421677459      110.26838285871
46 1 8 -0.75     120.425459698421    -57.9060974704673     108.142496441875
47 1 8 -0.75     119.455131743422    -54.9782572018587     105.627050963264
48 1 8 -0.75     118.720023256906    -52.1770673506954     102.737115175591
49 1 8 -0.75     122.003077796318    -52.2494091345965     100.450434379812
50 1 8 -0.75     123.514663616033    -54.0719805375731     97.3652675434049
ITEM: TIMESTEP
600000
ITEM: NUMBER OF ATOMS
50
ITEM: BOX BOUNDS pp pp pp
-3.0000000000000000e+02 3.0000000000000000e+02
-3.0000000000000000e+02 3.0000000000000000e+02
-3.0000000000000000e+02 3.0000000000000000e+02
ITEM: ATOMS id mol type q xu yu zu
1 1 3 0.75      73.153118147598    -41.2369400621928     80.3864044706108
2 1 3 0.75     71.4367289107689    -38.4514456034991     82.7963596478287
3 1 3 0.75     72.6905053531129    -35.4774157202761     85.5112654488419
4 1 3 0.75     74.6977055413331     -34.504658132409      88.420295346078
5 1 3 0.75      74.501040210357    -32.2402441054449     91.8262573776943
6 1 3 0.75     75.8908818593896    -32.6399034784347        95.4029022073
7 1 3 0.75      74.313413305209     -31.504029631434      98.788713442104
8 1 3 0.75     74.4142152597717    -32.9543299629223     102.296796745378
9 1 3 0.75     76.5624939598184    -36.0704065547643     103.529313712379
10 1 3 0.75     77.4712352282439    -39.4939165919961     103.569612221523
11 1 3 0.75     80.6993232985965    -41.7626015344634      103.98118431162
12 1 3 0.75     84.1784729352211    -42.5540012695025     105.266761651851
13 1 3 0.75     85.0143148029006    -38.9414971406248     106.643570720362
14 1 3 0.75     85.3015878306657    -35.1859293600659     107.447178097968
15 1 3 0.75     82.7013903052327    -32.8273155162821     106.256496825065
16 1 3 0.75      82.425031340275    -28.9183498271157     106.876799163993
17 1 3 0.75     82.3871789681598    -25.9662726560616     109.286321613908
18 1 3 0.75     83.2370648155521    -22.0832107729511     109.237594827318
19 1 3 0.75     84.3395045349418    -19.8571131736321     111.974162188132
20 1 3 0.75     86.9424169696124     -21.417736621084     114.323615903947
21 1 3 0.75     85.7064429215944    -23.7168176579907     117.276262034849
22 1 3 0.75     86.5856648115887    -27.2750026383347     115.991430466241
23 1 3 0.75     88.4862013475622    -30.3632867191845     115.176397177311
24 1 3 0.75     91.2495811407965    -31.1506904044458     117.926687598288
25 1 3 0.75     93.1705608121728    -28.9262803864753     120.440321880976
26 1 8 -0.75     89.5681544022419    -27.7604943472844     120.058197559062
27 1 8 -0.75     88.6543663038042    -31.0704996207886      121.10203161642
28 1 8 -0.75      84.791725523881    -31.7592227326775     119.678757865336
29 1 8 -0.75     83.0290932893041    -30.5512278487569     116.518071519999
30 1 8 -0.75     81.0407447075001    -28.0728722814323     114.226387875659
31 1 8 -0.75     77.7626778215101    -26.1037196495691     114.957609757981
32 1 8 -0.75     75.6206967639216    -27.4982940891359     112.075615085008
33 1 8 -0.75     75.4687630717759    -27.8816242623088     108.277791212777
34 1 8 -0.75     73.5202253614117    -30.6193184351881     105.895705094411
35 1 8 -0.75     73.8484308492574    -33.8611609255281     107.556064820339
36 1 8 -0.75     72.4405271080629     -36.924702251687     106.324439559932
37 1 8 -0.75     71.9476080557116    -37.7360129488629     102.758207683396
38 1 8 -0.75     72.7856834961037    -37.3497425398889     99.1627098545978
39 1 8 -0.75     70.9329085132198    -34.3425547015941     97.7418607238578
40 1 8 -0.75     69.2872272094517    -31.0511712478481     98.1657366619091
41 1 8 -0.75     71.3327714629547    -28.6278482626722     95.7032815157497
42 1 8 -0.75     71.4783128154249    -28.3150150260871     92.0207936549792
43 1 8 -0.75     74.2883863353737    -27.3878707421667     89.3819794501684
44 1 8 -0.75     78.1759735094523    -28.1889723583138     90.3699420579571
45 1 8 -0.75     80.3518033709493    -31.6173617452259     90.6124638399984
46 1 8 -0.75     81.0903195306573     -34.449524289596      93.262984208895
47 1 8 -0.75     80.7042270035572    -35.1951799499608     96.8965137355362
48 1 8 -0.75      82.786151812589    -35.9099453906181     99.9606125976685
49 1 8 -0.75     85.7782105040994    -35.2641458063371     102.262856414679
50 1 8 -0.75     89.4389150921379    -35.5955408178064     102.330169147917
ITEM: TIMESTEP
700000
ITEM: NUMBER OF ATOMS
50
ITEM: BOX BOUNDS pp pp pp
-3.0000000000000000e+02 3.0000000000000000e+02
-3.0000000000000000e+02 3.0000000000000000e+02
-3.0000000000000000e+02 3.0000000000000000e+02
ITEM: ATOMS id mol type q xu yu zu
1 1 3 0.75     75.7011894966118    -52.7850034432924     125.385193851728
2 1 3 0.75     76.6002201783649    -50.4495100184636     122.509143809013
3 1 3 0.75     76.8711055540655    -46.9263443871847     120.692842678808
4 1 3 0.75     77.0941604505173    -44.8327629253967     117.535854122227
5 1 3 0.75     78.0103588458623    -45.2309637419126      113.99230895188
6 1 3 0.75     77.4336176570412    -44.1595969969147     110.333150122266
7 1 3 0.75     79.7055339581344    -45.8785572913015     107.679137750594
8 1 3 0.75     81.2873533549432    -44.9085938368907      104.16845149484
9 1 3 0.75     77.6485453341906     -44.616904220305      102.26281878476
10 1 3 0.75     74.5208060637349    -46.1259343867664     103.454438996051
11 1 3 0.75     71.6632633955474    -48.2157044170698     101.991551184792
12 1 3 0.75     69.3239072629002    -46.8745285980385     99.6027130470996
13 1 3 0.75     69.3517838456339    -45.2380980354459     96.3460933320066
14 1 3 0.75     72.6500484946347    -44.7321670932876     94.7793592710649
15 1 3 0.75     73.7437987030605    -41.1665733487632     93.9966754956116
16 1 3 0.75     72.3839629565074    -37.7589740310724     95.4867102063353
17 1 3 0.75     71.7735353508233    -33.8464092224508     96.8814563809814
18 1 3 0.75     73.2989150006526    -31.0651212517857     94.6283964201387
19 1 3 0.75     75.6326380435508    -30.2225612022559     91.6630263001074
20 1 3 0.75     78.5918625915989    -28.3243391727427     93.0591202481518
21 1 3 0.75       78.34765880508    -24.6632420627741     92.0698080915869
22 1 3 0.75     76.7326187553293    -24.3533016102601     88.5393201333404
23 1 3 0.75     73.7243125330172    -23.2915428753493     86.2704418984337
24 1 3 0.75     70.5009942626083    -24.8274095899927     85.3234992314431
25 1 3 0.75     66.8771370058888    -24.3292915382478     85.5882841364788
26 1 8 -0.75     66.1550560833778    -22.8779259828379      89.186108814864
27 1 8 -0.75     69.4655459165979    -22.7119980566726     91.2621519356041
28 1 8 -0.75     71.4718958198142    -25.7874428032116     92.6099088704161
29 1 8 -0.75     70.2197127281349    -28.0963282608999     95.7647274176505
30 1 8 -0.75     70.6504835611062    -27.8241404442325     99.3301100374041
31 1 8 -0.75     70.1836097817574    -27.5444750795642     102.802529021455
32 1 8 -0.75     67.6468485175253    -29.5611993766802     104.898416393304
33 1 8 -0.75     66.7774272946218    -32.0676699147089     102.203221867805
34 1 8 -0.75     65.5106445654547     -30.983196773029     98.9846003388834
35 1 8 -0.75     66.9575786694294    -33.7549722899236     96.5868637208674
36 1 8 -0.75     68.2458214777764    -37.4138046095325     96.3734448900858
37 1 8 -0.75     70.0864511636926    -38.9077679526942     99.5598542595699
38 1 8 -0.75     72.3320452404634    -41.9665503918522     99.6613986114361
39 1 8 -0.75      73.540850553509    -45.3356154700579     98.8965093562653
40 1 8 -0.75     75.7651630747931    -48.2427095812937     97.8325892541707
41 1 8 -0.75     76.8435275389564    -50.6530766264548     100.355826433201
42 1 8 -0.75     76.7928976183732    -51.0850293360903     104.545547890027
43 1 8 -0.75     73.7990320424906    -50.3270810721409     106.786485931405
44 1 8 -0.75     71.9880318670812    -47.1784694112782     106.870554782793
45 1 8 -0.75     71.5953045036195    -43.4329793325588     107.692569495517
46 1 8 -0.75     73.9927716493007    -41.2808468016949     109.546276477402
47 1 8 -0.75     77.0915224473447    -38.9300620595987     109.350346005995
48 1 8 -0.75     78.2225262963253    -37.6759874697122     105.826016048866
49 1 8 -0.75     81.2493948668024    -36.6238462516759     104.084675271717
50 1 8 -0.75     84.0985106843927    -38.3037907327471     102.927973588154
ITEM: TIMESTEP
800000
ITEM: NUMBER OF ATOMS
50
ITEM: BOX BOUNDS pp pp pp
-3.0000000000000000e+02 3.0000000000000000e+02
-3.0000000000000000e+02 3.0000000000000000e+02
-3.0000000000000000e+02 3.0000000000000000e+02
ITEM: ATOMS id mol type q xu yu zu
1 1 3 0.75     90.3521029340313     -20.758959734372     116.663969536082
2 1 3 0.75     90.0848913973565    -17.3629640100467     117.995587061595
3 1 3 0.75     90.9533450283923    -14.8372400062251     120.661955813546
4 1 3 0.75     90.5398959114529    -11.0221107634709      120.78850555763
5 1 3 0.75     89.1577494246813    -9.16558461667629     123.811098697598
6 1 3 0.75     89.8831246359849       -5.54917795174     124.150794090759
7 1 3 0.75     90.3310723412148    -1.70554311392641     123.208981986797
8 1 3 0.75      90.617067053594     1.82182158474758     121.423184479623
9 1 3 0.75      89.755163546947     3.03843067351763     117.708589932105
10 1 3 0.75     87.9914916409054    0.502690232975748     115.652395135181
11 1 3 0.75     84.7423678542789   -0.970115529803706     114.575572843716
12 1 3 0.75     83.2260885562786    -4.47244258714714     114.817835410438
13 1 3 0.75     83.4996161388704    -7.07110093173259      117.62645113026
14 1 3 0.75     82.1996847406476    -10.5062348045569     117.356155527789
15 1 3 0.75     80.1056982903832     -11.773912791807     114.507766339684
16 1 3 0.75     80.5678344077094    -15.6778860522749     114.905546620775
17 1 3 0.75     77.7669439095328    -18.2224212177815     115.113367601031
18 1 3 0.75     74.1385831900383    -17.4954506695751     117.012144261196
19 1 3 0.75     73.9294267005707     -18.556114799095     120.572644792634
20 1 3 0.75      73.167389084309    -22.2307963937092      121.66977560855
21 1 3 0.75     71.7646831200579    -22.5026872915747     125.323233599269
22 1 3 0.75     74.0369257637906    -21.8923897268265     128.310499417816